
     Program PWSCF v.7.1 starts on  6May2024 at  2:45:32 

     This program is part of the open-source Quantum ESPRESSO suite
     for quantum simulation of materials; please cite
         "P. Giannozzi et al., J. Phys.:Condens. Matter 21 395502 (2009);
         "P. Giannozzi et al., J. Phys.:Condens. Matter 29 465901 (2017);
         "P. Giannozzi et al., J. Chem. Phys. 152 154105 (2020);
          URL http://www.quantum-espresso.org", 
     in publications or presentations arising from this work. More details at
     http://www.quantum-espresso.org/quote

     Parallel version (MPI), running on     2 processors

     MPI processes distributed on     1 nodes
     13798 MiB available memory on the printing compute node when the environment starts

     Waiting for input...
     Reading input from standard input
Warning: card &CELL ignored
Warning: card / ignored

     Current dimensions of program PWSCF are:
     Max number of different atomic species (ntypx) = 10
     Max number of k-points (npk) =  40000
     Max angular momentum in pseudopotentials (lmaxx) =  4
     file Ba.pbe-spn-kjpaw_psl.1.0.0.UPF: wavefunction(s)  5S 6S renormalized
     file Bi.pbe-dn-kjpaw_psl.1.0.0.UPF: wavefunction(s)  6P 5D renormalized
     file O.pbe-n-kjpaw_psl.1.0.0.UPF: wavefunction(s)  2S 2P renormalized
     Message from routine setup:
     using ibrav=0 with symmetry is DISCOURAGED, use correct ibrav instead

     R & G space division:  proc/nbgrp/npool/nimage =       2
     Subspace diagonalization in iterative solution of the eigenvalue problem:
     a serial algorithm will be used


     Parallelization info
     --------------------
     sticks:   dense  smooth     PW     G-vecs:    dense   smooth      PW
     Min        1530     766    218                63460    22356    3381
     Max        1531     767    219                63463    22357    3382
     Sum        3061    1533    437               126923    44713    6763

     Using Slab Decomposition



     bravais-lattice index     =            0
     lattice parameter (alat)  =       8.2770  a.u.
     unit-cell volume          =     567.0468 (a.u.)^3
     number of atoms/cell      =            5
     number of atomic types    =            3
     number of electrons       =        43.00
     number of Kohn-Sham states=           26
     kinetic-energy cutoff     =      70.0000  Ry
     charge density cutoff     =     560.0000  Ry
     scf convergence threshold =      1.0E-07
     mixing beta               =       0.7000
     number of iterations used =            8  plain     mixing
     Exchange-correlation= SLA  PW   PBX  PBC
                           (   1   4   3   4   0   0   0)

     celldm(1)=   8.277000  celldm(2)=   0.000000  celldm(3)=   0.000000
     celldm(4)=   0.000000  celldm(5)=   0.000000  celldm(6)=   0.000000

     crystal axes: (cart. coord. in units of alat)
               a(1) = (   1.000000   0.000000   0.000000 )  
               a(2) = (   0.000000   1.000000   0.000000 )  
               a(3) = (   0.000000   0.000000   1.000000 )  

     reciprocal axes: (cart. coord. in units 2 pi/alat)
               b(1) = (  1.000000  0.000000  0.000000 )  
               b(2) = (  0.000000  1.000000  0.000000 )  
               b(3) = (  0.000000  0.000000  1.000000 )  


     PseudoPot. # 1 for Ba read from file:
     /home/bond/Software/qe-7.1/pseudo/Ba.pbe-spn-kjpaw_psl.1.0.0.UPF
     MD5 check sum: 7cfe25f1fe7574a4710541d5a11d6531
     Pseudo is Projector augmented-wave + core cor, Zval = 10.0
     Generated using &quot;atomic&quot; code by A. Dal Corso  v.6.2.2
     Shape of augmentation charge: PSQ
     Using radial grid of 1251 points,  7 beta functions with: 
                l(1) =   0
                l(2) =   0
                l(3) =   0
                l(4) =   1
                l(5) =   1
                l(6) =   2
                l(7) =   2
     Q(r) pseudized with 0 coefficients 


     PseudoPot. # 2 for Bi read from file:
     /home/bond/Software/qe-7.1/pseudo/Bi.pbe-dn-kjpaw_psl.1.0.0.UPF
     MD5 check sum: 266ded784ae3bc462508ed03f0f37963
     Pseudo is Projector augmented-wave + core cor, Zval = 15.0
     Generated using &quot;atomic&quot; code by A. Dal Corso  v.6.2.2
     Shape of augmentation charge: PSQ
     Using radial grid of 1283 points,  6 beta functions with: 
                l(1) =   0
                l(2) =   0
                l(3) =   1
                l(4) =   1
                l(5) =   2
                l(6) =   2
     Q(r) pseudized with 0 coefficients 


     PseudoPot. # 3 for O  read from file:
     /home/bond/Software/qe-7.1/pseudo/O.pbe-n-kjpaw_psl.1.0.0.UPF
     MD5 check sum: e99d9cef9b487d1ca56f5b95ecd0fd7a
     Pseudo is Projector augmented-wave + core cor, Zval =  6.0
     Generated using &quot;atomic&quot; code by A. Dal Corso  v.6.3
     Shape of augmentation charge: PSQ
     Using radial grid of 1095 points,  4 beta functions with: 
                l(1) =   0
                l(2) =   0
                l(3) =   1
                l(4) =   1
     Q(r) pseudized with 0 coefficients 


     atomic species   valence    mass     pseudopotential
        Ba            10.00   137.32700     Ba( 1.00)
        Bi            15.00   208.98040     Bi( 1.00)
        O              6.00    15.99900     O ( 1.00)

     48 Sym. Ops., with inversion, found



   Cartesian axes

     site n.     atom                  positions (alat units)
         1           Ba  tau(   1) = (   0.5000000   0.5000000   0.5000000  )
         2           Bi  tau(   2) = (   0.0000000   0.0000000   0.0000000  )
         3           O   tau(   3) = (   0.0000000   0.0000000   0.5000000  )
         4           O   tau(   4) = (   0.5000000   0.0000000   0.0000000  )
         5           O   tau(   5) = (   0.0000000   0.5000000   0.0000000  )

     number of k points=    10  Methfessel-Paxton smearing, width (Ry)=  0.0200
                       cart. coord. in units 2pi/alat
        k(    1) = (   0.0000000   0.0000000   0.0000000), wk =   0.0160000
        k(    2) = (   0.0000000   0.0000000   0.2000000), wk =   0.0960000
        k(    3) = (   0.0000000   0.0000000   0.4000000), wk =   0.0960000
        k(    4) = (   0.0000000   0.2000000   0.2000000), wk =   0.1920000
        k(    5) = (   0.0000000   0.2000000   0.4000000), wk =   0.3840000
        k(    6) = (   0.0000000   0.4000000   0.4000000), wk =   0.1920000
        k(    7) = (   0.2000000   0.2000000   0.2000000), wk =   0.1280000
        k(    8) = (   0.2000000   0.2000000   0.4000000), wk =   0.3840000
        k(    9) = (   0.2000000   0.4000000   0.4000000), wk =   0.3840000
        k(   10) = (   0.4000000   0.4000000   0.4000000), wk =   0.1280000

     Dense  grid:   126923 G-vectors     FFT dimensions: (  64,  64,  64)

     Smooth grid:    44713 G-vectors     FFT dimensions: (  45,  45,  45)

     Estimated max dynamical RAM per process >     274.43 MB

     Estimated total dynamical RAM >     548.86 MB

     Initial potential from superposition of free atoms

     starting charge      42.9822, renormalised to      43.0000
     Starting wfcs are   26 randomized atomic wfcs
     Checking if some PAW data can be deallocated... 

     total cpu time spent up to now is        5.1 secs

     Self-consistent Calculation

     iteration #  1     ecut=    70.00 Ry     beta= 0.70
     Davidson diagonalization with overlap
     ethr =  1.00E-02,  avg # of iterations =  3.2

     total cpu time spent up to now is        9.9 secs

     total energy              =   -1466.64655209 Ry
     estimated scf accuracy    <       1.74898080 Ry

     iteration #  2     ecut=    70.00 Ry     beta= 0.70
     Davidson diagonalization with overlap
     ethr =  4.07E-03,  avg # of iterations =  6.7

     total cpu time spent up to now is       16.0 secs

     total energy              =   -1467.11543499 Ry
     estimated scf accuracy    <       3.91344386 Ry

     iteration #  3     ecut=    70.00 Ry     beta= 0.70
     Davidson diagonalization with overlap
     ethr =  4.07E-03,  avg # of iterations =  2.6

     total cpu time spent up to now is       21.0 secs

     total energy              =   -1467.36854570 Ry
     estimated scf accuracy    <       0.44944929 Ry

     iteration #  4     ecut=    70.00 Ry     beta= 0.70
     Davidson diagonalization with overlap
     ethr =  1.05E-03,  avg # of iterations =  5.2

     total cpu time spent up to now is       26.8 secs

     total energy              =   -1467.76859453 Ry
     estimated scf accuracy    <       0.22309839 Ry

     iteration #  5     ecut=    70.00 Ry     beta= 0.70
     Davidson diagonalization with overlap
     ethr =  5.19E-04,  avg # of iterations =  1.6

     total cpu time spent up to now is       31.1 secs

     total energy              =   -1467.73410194 Ry
     estimated scf accuracy    <       0.09408209 Ry

     iteration #  6     ecut=    70.00 Ry     beta= 0.70
     Davidson diagonalization with overlap
     ethr =  2.19E-04,  avg # of iterations =  8.0

     total cpu time spent up to now is       36.7 secs

     total energy              =   -1467.76212992 Ry
     estimated scf accuracy    <       0.00067146 Ry

     iteration #  7     ecut=    70.00 Ry     beta= 0.70
     Davidson diagonalization with overlap
     c_bands:  2 eigenvalues not converged
     c_bands:  1 eigenvalues not converged
     c_bands:  1 eigenvalues not converged
     c_bands:  1 eigenvalues not converged
     c_bands:  3 eigenvalues not converged
     c_bands:  1 eigenvalues not converged
     ethr =  1.56E-06,  avg # of iterations = 16.0

     total cpu time spent up to now is       45.9 secs

     total energy              =   -1467.76539453 Ry
     estimated scf accuracy    <       0.01018017 Ry

     iteration #  8     ecut=    70.00 Ry     beta= 0.70
     Davidson diagonalization with overlap
     ethr =  1.56E-06,  avg # of iterations =  5.9

     total cpu time spent up to now is       51.0 secs

     total energy              =   -1467.76285112 Ry
     estimated scf accuracy    <       0.00593057 Ry

     iteration #  9     ecut=    70.00 Ry     beta= 0.70
     Davidson diagonalization with overlap
     ethr =  1.56E-06,  avg # of iterations =  5.6

     total cpu time spent up to now is       57.5 secs

     total energy              =   -1467.76446556 Ry
     estimated scf accuracy    <       0.00016687 Ry

     iteration # 10     ecut=    70.00 Ry     beta= 0.70
     Davidson diagonalization with overlap
     ethr =  3.88E-07,  avg # of iterations =  1.7

     total cpu time spent up to now is       61.9 secs

     total energy              =   -1467.76445397 Ry
     estimated scf accuracy    <       0.00006060 Ry

     iteration # 11     ecut=    70.00 Ry     beta= 0.70
     Davidson diagonalization with overlap
     ethr =  1.41E-07,  avg # of iterations =  2.6

     total cpu time spent up to now is       66.6 secs

     total energy              =   -1467.76445880 Ry
     estimated scf accuracy    <       0.00000922 Ry

     iteration # 12     ecut=    70.00 Ry     beta= 0.70
     Davidson diagonalization with overlap
     ethr =  2.14E-08,  avg # of iterations =  5.2

     total cpu time spent up to now is       72.3 secs

     total energy              =   -1467.76446600 Ry
     estimated scf accuracy    <       0.00000181 Ry

     iteration # 13     ecut=    70.00 Ry     beta= 0.70
     Davidson diagonalization with overlap
     ethr =  4.21E-09,  avg # of iterations =  2.2

     total cpu time spent up to now is       76.9 secs

     total energy              =   -1467.76446601 Ry
     estimated scf accuracy    <       0.00000040 Ry

     iteration # 14     ecut=    70.00 Ry     beta= 0.70
     Davidson diagonalization with overlap
     ethr =  9.22E-10,  avg # of iterations =  4.7

     total cpu time spent up to now is       82.5 secs

     End of self-consistent calculation

          k = 0.0000 0.0000 0.0000 (  5575 PWs)   bands (ev):

   -16.7790 -12.7101 -12.7101 -12.2650 -12.2650 -12.2650  -8.5970  -6.0712
    -6.0712  -1.9047  -1.9047  -1.9047   3.9644   4.3748   4.3748   4.3748
     8.0337   8.0337   8.0337   8.2922   8.2922   8.2922  13.4613  13.4614
    14.6789  15.4613

          k = 0.0000 0.0000 0.2000 (  5594 PWs)   bands (ev):

   -16.7690 -12.7096 -12.6479 -12.2684 -12.2684 -12.2649  -8.4970  -6.4211
    -6.0666  -1.8735  -1.8735  -1.8514   2.5075   4.3767   4.3767   6.1767
     7.8333   7.9471   7.9471   8.2085   8.2085   8.4831  13.9422  13.9628
    15.3649  15.8050

          k = 0.0000 0.0000 0.4000 (  5606 PWs)   bands (ev):

   -16.7527 -12.7089 -12.5445 -12.2740 -12.2740 -12.2647  -8.1948  -7.1149
    -6.0592  -1.8219  -1.8219  -1.7893   1.7235   4.3706   4.3706   6.7737
     7.5507   7.8725   7.8725   8.0377   8.0377  10.0070  14.7204  14.7524
    15.7348  16.3053

          k = 0.0000 0.2000 0.2000 (  5601 PWs)   bands (ev):

   -16.7598 -12.6792 -12.6139 -12.2715 -12.2684 -12.2681  -8.3943  -6.5486
    -6.2529  -1.9013  -1.8469  -1.8068   1.5824   4.4124   5.3674   6.3893
     7.5404   7.8498   8.0534   8.1037   8.3990   8.7234  14.2495  14.4892
    15.5429  15.8917

          k = 0.0000 0.2000 0.4000 (  5605 PWs)   bands (ev):

   -16.7449 -12.6687 -12.5165 -12.2764 -12.2737 -12.2680  -8.0817  -7.1395
    -6.3134  -1.8801  -1.8206  -1.8030   0.8525   4.4655   5.7466   6.6962
     7.4395   7.7573   7.8931   7.9996   8.3545  10.2688  14.9085  15.2125
    15.8977  16.0430

          k = 0.0000 0.4000 0.4000 (  5582 PWs)   bands (ev):

   -16.7323 -12.6313 -12.4388 -12.2802 -12.2733 -12.2732  -7.7397  -7.2450
    -6.8337  -1.9349  -1.9041  -1.7720   0.0924   4.6324   6.5135   7.2827
     7.5267   7.5847   7.6485   8.1176   8.6970  11.3140  15.0973  15.3791
    15.6066  15.8458

          k = 0.2000 0.2000 0.2000 (  5587 PWs)   bands (ev):

   -16.7513 -12.6134 -12.6134 -12.2717 -12.2717 -12.2709  -8.2929  -6.5349
    -6.5349  -1.9100  -1.9100  -1.7598   0.8032   5.3978   5.3978   6.4671
     7.5439   7.5439   8.2988   8.3279   8.3279   8.9514  14.6137  14.6138
    15.4939  15.9373

          k = 0.2000 0.2000 0.4000 (  5599 PWs)   bands (ev):

   -16.7374 -12.6128 -12.5030 -12.2775 -12.2757 -12.2714  -7.9817  -7.1453
    -6.5126  -1.9246  -1.9142  -1.7978   0.0870   5.4417   6.0955   6.7323
     7.3541   7.5913   8.1773   8.1785   8.4154  10.4583  14.7968  15.1191
    15.7001  15.8237

          k = 0.2000 0.4000 0.4000 (  5622 PWs)   bands (ev):

   -16.7252 -12.5599 -12.4386 -12.2814 -12.2771 -12.2767  -7.6775  -7.2223
    -6.9294  -1.9931  -1.9839  -1.8664  -0.6842   5.8640   6.7499   7.2805
     7.3471   7.6134   8.1506   8.3244   8.7121  11.4143  14.4107  14.4778
    15.0195  15.9606

          k = 0.4000 0.4000 0.4000 (  5637 PWs)   bands (ev):

   -16.7137 -12.4383 -12.4383 -12.2833 -12.2833 -12.2822  -7.4898  -7.1848
    -7.1848  -2.0870  -2.0870  -2.0311  -1.5494   7.1198   7.3130   7.3130
     7.6380   7.6380   8.6537   8.6537   8.7674  11.9583  13.4488  13.4488
    14.1197  16.9230

     the Fermi energy is    10.4078 ev

!    total energy              =   -1467.76446620 Ry
     total all-electron energy =    -59784.856249 Ry
     estimated scf accuracy    <       0.00000007 Ry
     smearing contrib. (-TS)   =      -0.00126975 Ry
     internal energy E=F+TS    =   -1467.76319645 Ry

     The total energy is F=E-TS. E is the sum of the following terms:
     one-electron contribution =     -80.42037263 Ry
     hartree contribution      =      72.64933357 Ry
     xc contribution           =     -75.38147973 Ry
     ewald contribution        =    -224.29217723 Ry
     one-center paw contrib.   =   -1160.31850043 Ry

     convergence has been achieved in  14 iterations

     Forces acting on atoms (cartesian axes, Ry/au):

     atom    1 type  1   force =     0.00000000    0.00000000    0.00000000
     atom    2 type  2   force =     0.00000000    0.00000000    0.00000000
     atom    3 type  3   force =     0.00000000    0.00000000    0.00000000
     atom    4 type  3   force =     0.00000000    0.00000000    0.00000000
     atom    5 type  3   force =     0.00000000    0.00000000    0.00000000

     Total force =     0.000000     Total SCF correction =     0.000000


     Computing stress (Cartesian axis) and pressure

          total   stress  (Ry/bohr**3)                   (kbar)     P=       34.13
   0.00023200   0.00000000   0.00000000           34.13        0.00        0.00
   0.00000000   0.00023200   0.00000000            0.00       34.13        0.00
   0.00000000   0.00000000   0.00023200            0.00        0.00       34.13


     init_run     :      3.65s CPU      4.18s WALL (       1 calls)
     electrons    :     71.79s CPU     77.40s WALL (       1 calls)
     forces       :      1.22s CPU      1.40s WALL (       1 calls)
     stress       :      7.13s CPU      7.60s WALL (       1 calls)

     Called by init_run:
     wfcinit      :      0.86s CPU      0.96s WALL (       1 calls)
     potinit      :      0.79s CPU      0.91s WALL (       1 calls)
     hinit0       :      1.44s CPU      1.50s WALL (       1 calls)

     Called by electrons:
     c_bands      :     42.34s CPU     43.15s WALL (      14 calls)
     sum_band     :     13.74s CPU     16.21s WALL (      14 calls)
     v_of_rho     :      1.63s CPU      1.70s WALL (      15 calls)
     newd         :      6.79s CPU      9.18s WALL (      15 calls)
     PAW_pot      :      7.92s CPU      8.04s WALL (      15 calls)
     mix_rho      :      0.26s CPU      0.27s WALL (      14 calls)

     Called by c_bands:
     init_us_2    :      0.76s CPU      0.79s WALL (     310 calls)
     init_us_2:cp :      0.76s CPU      0.78s WALL (     310 calls)
     cegterg      :     40.64s CPU     41.39s WALL (     140 calls)

     Called by *egterg:
     cdiaghg      :      1.09s CPU      1.11s WALL (     852 calls)
     h_psi        :     32.39s CPU     33.05s WALL (     862 calls)
     s_psi        :      1.39s CPU      1.43s WALL (     862 calls)
     g_psi        :      0.18s CPU      0.18s WALL (     712 calls)

     Called by h_psi:
     h_psi:calbec :      1.67s CPU      1.71s WALL (     862 calls)
     vloc_psi     :     29.04s CPU     29.64s WALL (     862 calls)
     add_vuspsi   :      1.52s CPU      1.55s WALL (     862 calls)

     General routines
     calbec       :      2.31s CPU      2.36s WALL (    1052 calls)
     fft          :      1.21s CPU      1.27s WALL (     218 calls)
     ffts         :      0.14s CPU      0.15s WALL (      29 calls)
     fftw         :     30.52s CPU     31.13s WALL (   26284 calls)
     interpolate  :      0.19s CPU      0.20s WALL (      15 calls)

     Parallel routines

     PWSCF        :   1m24.72s CPU   1m31.54s WALL


   This run was terminated on:   2:47: 3   6May2024            

=------------------------------------------------------------------------------=
   JOB DONE.
=------------------------------------------------------------------------------=
