
     Program PWSCF v.7.1 starts on  6May2024 at  6:15:13 

     This program is part of the open-source Quantum ESPRESSO suite
     for quantum simulation of materials; please cite
         "P. Giannozzi et al., J. Phys.:Condens. Matter 21 395502 (2009);
         "P. Giannozzi et al., J. Phys.:Condens. Matter 29 465901 (2017);
         "P. Giannozzi et al., J. Chem. Phys. 152 154105 (2020);
          URL http://www.quantum-espresso.org", 
     in publications or presentations arising from this work. More details at
     http://www.quantum-espresso.org/quote

     Parallel version (MPI), running on     2 processors

     MPI processes distributed on     1 nodes
     13479 MiB available memory on the printing compute node when the environment starts

     Waiting for input...
     Reading input from standard input
Warning: card &CELL ignored
Warning: card / ignored

     Current dimensions of program PWSCF are:
     Max number of different atomic species (ntypx) = 10
     Max number of k-points (npk) =  40000
     Max angular momentum in pseudopotentials (lmaxx) =  4
     file Bi.pbe-dn-kjpaw_psl.1.0.0.UPF: wavefunction(s)  6P 5D renormalized
     Message from routine setup:
     using ibrav=0 with symmetry is DISCOURAGED, use correct ibrav instead

     R & G space division:  proc/nbgrp/npool/nimage =       2
     Subspace diagonalization in iterative solution of the eigenvalue problem:
     a serial algorithm will be used


     Parallelization info
     --------------------
     sticks:   dense  smooth     PW     G-vecs:    dense   smooth      PW
     Min         842     422    120                25932     9162    1470
     Max         843     423    121                25935     9163    1475
     Sum        1685     845    241                51867    18325    2945

     Using Slab Decomposition



     bravais-lattice index     =            0
     lattice parameter (alat)  =       6.1416  a.u.
     unit-cell volume          =     231.6577 (a.u.)^3
     number of atoms/cell      =            1
     number of atomic types    =            1
     number of electrons       =        15.00
     number of Kohn-Sham states=           12
     kinetic-energy cutoff     =      70.0000  Ry
     charge density cutoff     =     560.0000  Ry
     scf convergence threshold =      1.0E-07
     mixing beta               =       0.7000
     number of iterations used =            8  plain     mixing
     energy convergence thresh.=      1.0E-04
     force convergence thresh. =      1.0E-03
     Exchange-correlation= SLA  PW   PBX  PBC
                           (   1   4   3   4   0   0   0)
     nstep                     =           50


     celldm(1)=   6.141610  celldm(2)=   0.000000  celldm(3)=   0.000000
     celldm(4)=   0.000000  celldm(5)=   0.000000  celldm(6)=   0.000000

     crystal axes: (cart. coord. in units of alat)
               a(1) = (   1.000000   0.000000   0.000000 )  
               a(2) = (   0.000000   1.000000   0.000000 )  
               a(3) = (   0.000000   0.000000   1.000000 )  

     reciprocal axes: (cart. coord. in units 2 pi/alat)
               b(1) = (  1.000000  0.000000  0.000000 )  
               b(2) = (  0.000000  1.000000  0.000000 )  
               b(3) = (  0.000000  0.000000  1.000000 )  


     PseudoPot. # 1 for Bi read from file:
     /home/bond/Software/qe-7.1/pseudo/Bi.pbe-dn-kjpaw_psl.1.0.0.UPF
     MD5 check sum: 266ded784ae3bc462508ed03f0f37963
     Pseudo is Projector augmented-wave + core cor, Zval = 15.0
     Generated using &quot;atomic&quot; code by A. Dal Corso  v.6.2.2
     Shape of augmentation charge: PSQ
     Using radial grid of 1283 points,  6 beta functions with: 
                l(1) =   0
                l(2) =   0
                l(3) =   1
                l(4) =   1
                l(5) =   2
                l(6) =   2
     Q(r) pseudized with 0 coefficients 


     atomic species   valence    mass     pseudopotential
        Bi            15.00   208.98040     Bi( 1.00)

     48 Sym. Ops., with inversion, found



   Cartesian axes

     site n.     atom                  positions (alat units)
         1           Bi  tau(   1) = (   0.5000000   0.5000000   0.5000000  )

     number of k points=    10  Methfessel-Paxton smearing, width (Ry)=  0.0200
                       cart. coord. in units 2pi/alat
        k(    1) = (   0.0000000   0.0000000   0.0000000), wk =   0.0160000
        k(    2) = (   0.0000000   0.0000000   0.2000000), wk =   0.0960000
        k(    3) = (   0.0000000   0.0000000   0.4000000), wk =   0.0960000
        k(    4) = (   0.0000000   0.2000000   0.2000000), wk =   0.1920000
        k(    5) = (   0.0000000   0.2000000   0.4000000), wk =   0.3840000
        k(    6) = (   0.0000000   0.4000000   0.4000000), wk =   0.1920000
        k(    7) = (   0.2000000   0.2000000   0.2000000), wk =   0.1280000
        k(    8) = (   0.2000000   0.2000000   0.4000000), wk =   0.3840000
        k(    9) = (   0.2000000   0.4000000   0.4000000), wk =   0.3840000
        k(   10) = (   0.4000000   0.4000000   0.4000000), wk =   0.1280000

     Dense  grid:    51867 G-vectors     FFT dimensions: (  48,  48,  48)

     Smooth grid:    18325 G-vectors     FFT dimensions: (  36,  36,  36)

     Estimated max dynamical RAM per process >      98.52 MB

     Estimated total dynamical RAM >     197.03 MB

     Initial potential from superposition of free atoms

     starting charge      14.9992, renormalised to      15.0000
     Starting wfcs are    9 randomized atomic wfcs +    3 random wfcs
     Checking if some PAW data can be deallocated... 

     total cpu time spent up to now is        2.8 secs

     Self-consistent Calculation

     iteration #  1     ecut=    70.00 Ry     beta= 0.70
     Davidson diagonalization with overlap
     ethr =  1.00E-02,  avg # of iterations =  5.8

     Threshold (ethr) on eigenvalues was too large:
     Diagonalizing with lowered threshold

     Davidson diagonalization with overlap
     ethr =  7.78E-06,  avg # of iterations =  7.5

     total cpu time spent up to now is        4.9 secs

     total energy              =    -906.36437251 Ry
     estimated scf accuracy    <       0.00130778 Ry

     iteration #  2     ecut=    70.00 Ry     beta= 0.70
     Davidson diagonalization with overlap
     ethr =  8.72E-06,  avg # of iterations =  1.5

     total cpu time spent up to now is        5.9 secs

     total energy              =    -906.36450142 Ry
     estimated scf accuracy    <       0.00011512 Ry

     iteration #  3     ecut=    70.00 Ry     beta= 0.70
     Davidson diagonalization with overlap
     ethr =  7.67E-07,  avg # of iterations =  2.0

     total cpu time spent up to now is        7.0 secs

     total energy              =    -906.36451748 Ry
     estimated scf accuracy    <       0.00000815 Ry

     iteration #  4     ecut=    70.00 Ry     beta= 0.70
     Davidson diagonalization with overlap
     ethr =  5.43E-08,  avg # of iterations =  2.0

     total cpu time spent up to now is        8.0 secs

     End of self-consistent calculation

          k = 0.0000 0.0000 0.0000 (  2301 PWs)   bands (ev):

   -12.8889 -12.8889 -12.5638 -12.5638 -12.5638  -3.0274  13.2790  13.2790
    13.2790  16.4065  17.9444  17.9444

          k = 0.0000 0.0000 0.2000 (  2288 PWs)   bands (ev):

   -12.8841 -12.7958 -12.5926 -12.5926 -12.5616  -2.5435   9.4085  13.8051
    13.8051  17.3696  18.3636  22.2893

          k = 0.0000 0.0000 0.4000 (  2288 PWs)   bands (ev):

   -12.8765 -12.6451 -12.6390 -12.6390 -12.5578  -1.4210   5.7448  14.9039
    14.9039  18.8612  19.6436  21.4830

          k = 0.0000 0.2000 0.2000 (  2299 PWs)   bands (ev):

   -12.8368 -12.7435 -12.6245 -12.5908 -12.5895  -2.0621   9.8244  10.0347
    14.3370  18.2742  20.2138  22.8816

          k = 0.0000 0.2000 0.4000 (  2291 PWs)   bands (ev):

   -12.8158 -12.6754 -12.6360 -12.6029 -12.5860  -0.9455   6.2508  11.0999
    15.4489  17.0374  19.7469  22.1428

          k = 0.0000 0.4000 0.4000 (  2280 PWs)   bands (ev):

   -12.7586 -12.7336 -12.6313 -12.6308 -12.4925   0.1664   7.3602   7.3675
    13.8773  16.5752  21.0422  22.7850

          k = 0.2000 0.2000 0.2000 (  2277 PWs)   bands (ev):

   -12.7397 -12.7397 -12.6233 -12.6205 -12.6205  -1.5828  10.2637  10.5427
    10.5427  20.0034  21.1536  21.1536

          k = 0.2000 0.2000 0.4000 (  2287 PWs)   bands (ev):

   -12.7333 -12.6732 -12.6706 -12.6172 -12.5813  -0.4706   6.7551  11.5867
    11.6509  17.1064  18.1060  22.1748

          k = 0.2000 0.4000 0.4000 (  2291 PWs)   bands (ev):

   -12.7294 -12.6668 -12.6660 -12.6551 -12.4903   0.6402   7.8544   7.8694
    12.7707  14.3566  18.8632  19.2364

          k = 0.4000 0.4000 0.4000 (  2308 PWs)   bands (ev):

   -12.7234 -12.7220 -12.7220 -12.4868 -12.4868   1.7605   8.8973   8.8973
     8.9996  15.2157  16.2137  16.2137

     the Fermi energy is    10.3584 ev

!    total energy              =    -906.36451909 Ry
     total all-electron energy =    -43061.822515 Ry
     estimated scf accuracy    <       0.00000009 Ry
     smearing contrib. (-TS)   =       0.00004675 Ry
     internal energy E=F+TS    =    -906.36456584 Ry

     The total energy is F=E-TS. E is the sum of the following terms:
     one-electron contribution =     -48.78149717 Ry
     hartree contribution      =      35.43288619 Ry
     xc contribution           =     -32.50305014 Ry
     ewald contribution        =    -103.94537308 Ry
     one-center paw contrib.   =    -756.56753163 Ry

     convergence has been achieved in   4 iterations

     Forces acting on atoms (cartesian axes, Ry/au):

     atom    1 type  1   force =     0.00000000    0.00000000    0.00000000

     Total force =     0.000000     Total SCF correction =     0.000000


     Computing stress (Cartesian axis) and pressure

          total   stress  (Ry/bohr**3)                   (kbar)     P=       10.09
   0.00006861   0.00000000   0.00000000           10.09        0.00        0.00
   0.00000000   0.00006861   0.00000000            0.00       10.09        0.00
   0.00000000   0.00000000   0.00006861            0.00        0.00       10.09


     BFGS Geometry Optimization
     Energy error            =      0.0E+00 Ry
     Gradient error          =      0.0E+00 Ry/Bohr

     bfgs converged in   1 scf cycles and   0 bfgs steps
     (criteria: energy <  1.0E-04 Ry, force <  1.0E-03 Ry/Bohr)

     End of BFGS Geometry Optimization

     Final energy             =    -906.3645190902 Ry
Begin final coordinates

ATOMIC_POSITIONS (angstrom)
Bi            1.6250000000        1.6250000000        1.6250000000
End final coordinates



     init_run     :      1.77s CPU      2.44s WALL (       1 calls)
     electrons    :      4.44s CPU      5.15s WALL (       1 calls)
     forces       :      0.22s CPU      0.27s WALL (       1 calls)
     stress       :      1.29s CPU      1.43s WALL (       1 calls)

     Called by init_run:
     wfcinit      :      0.15s CPU      0.16s WALL (       1 calls)
     potinit      :      0.56s CPU      0.90s WALL (       1 calls)
     hinit0       :      0.91s CPU      1.16s WALL (       1 calls)

     Called by electrons:
     c_bands      :      2.26s CPU      2.47s WALL (       5 calls)
     sum_band     :      0.92s CPU      1.17s WALL (       5 calls)
     v_of_rho     :      0.23s CPU      0.31s WALL (       5 calls)
     newd         :      0.47s CPU      0.72s WALL (       5 calls)
     PAW_pot      :      0.93s CPU      1.06s WALL (       5 calls)
     mix_rho      :      0.02s CPU      0.02s WALL (       5 calls)

     Called by c_bands:
     init_us_2    :      0.08s CPU      0.08s WALL (     130 calls)
     init_us_2:cp :      0.07s CPU      0.08s WALL (     130 calls)
     cegterg      :      2.15s CPU      2.34s WALL (      50 calls)

     Called by *egterg:
     cdiaghg      :      0.07s CPU      0.08s WALL (     228 calls)
     h_psi        :      1.92s CPU      2.08s WALL (     248 calls)
     s_psi        :      0.04s CPU      0.04s WALL (     248 calls)
     g_psi        :      0.01s CPU      0.01s WALL (     188 calls)

     Called by h_psi:
     h_psi:calbec :      0.05s CPU      0.05s WALL (     248 calls)
     vloc_psi     :      1.81s CPU      1.97s WALL (     248 calls)
     add_vuspsi   :      0.04s CPU      0.04s WALL (     248 calls)

     General routines
     calbec       :      0.07s CPU      0.08s WALL (     348 calls)
     fft          :      0.65s CPU      0.86s WALL (      89 calls)
     ffts         :      0.22s CPU      0.37s WALL (      10 calls)
     fftw         :      1.89s CPU      2.06s WALL (    4144 calls)
     interpolate  :      0.25s CPU      0.40s WALL (       5 calls)

     Parallel routines

     PWSCF        :      8.11s CPU      9.69s WALL


   This run was terminated on:   6:15:22   6May2024            

=------------------------------------------------------------------------------=
   JOB DONE.
=------------------------------------------------------------------------------=
