
     Program PWSCF v.7.1 starts on  7May2024 at  2:31:25 

     This program is part of the open-source Quantum ESPRESSO suite
     for quantum simulation of materials; please cite
         "P. Giannozzi et al., J. Phys.:Condens. Matter 21 395502 (2009);
         "P. Giannozzi et al., J. Phys.:Condens. Matter 29 465901 (2017);
         "P. Giannozzi et al., J. Chem. Phys. 152 154105 (2020);
          URL http://www.quantum-espresso.org", 
     in publications or presentations arising from this work. More details at
     http://www.quantum-espresso.org/quote

     Parallel version (MPI), running on     2 processors

     MPI processes distributed on     1 nodes
     13629 MiB available memory on the printing compute node when the environment starts

     Waiting for input...
     Reading input from standard input
Warning: card &CELL ignored
Warning: card / ignored

     Current dimensions of program PWSCF are:
     Max number of different atomic species (ntypx) = 10
     Max number of k-points (npk) =  40000
     Max angular momentum in pseudopotentials (lmaxx) =  4
     file Mg.pbe-spnl-kjpaw_psl.1.0.0.UPF: wavefunction(s)  2P renormalized
     file O.pbe-n-kjpaw_psl.1.0.0.UPF: wavefunction(s)  2S 2P renormalized
     Message from routine setup:
     using ibrav=0 with symmetry is DISCOURAGED, use correct ibrav instead

     R & G space division:  proc/nbgrp/npool/nimage =       2
     Subspace diagonalization in iterative solution of the eigenvalue problem:
     a serial algorithm will be used


     Parallelization info
     --------------------
     sticks:   dense  smooth     PW     G-vecs:    dense   smooth      PW
     Min         618     306     99                14285     5040     879
     Max         619     307    100                14286     5041     880
     Sum        1237     613    199                28571    10081    1759

     Using Slab Decomposition



     bravais-lattice index     =            0
     lattice parameter (alat)  =       5.6523  a.u.
     unit-cell volume          =     127.6902 (a.u.)^3
     number of atoms/cell      =            2
     number of atomic types    =            2
     number of electrons       =        16.00
     number of Kohn-Sham states=           12
     kinetic-energy cutoff     =      70.0000  Ry
     charge density cutoff     =     560.0000  Ry
     scf convergence threshold =      1.0E-07
     mixing beta               =       0.7000
     number of iterations used =            8  plain     mixing
     energy convergence thresh.=      1.0E-04
     force convergence thresh. =      1.0E-03
     Exchange-correlation= SLA  PW   PBX  PBC
                           (   1   4   3   4   0   0   0)
     nstep                     =           50


     celldm(1)=   5.652287  celldm(2)=   0.000000  celldm(3)=   0.000000
     celldm(4)=   0.000000  celldm(5)=   0.000000  celldm(6)=   0.000000

     crystal axes: (cart. coord. in units of alat)
               a(1) = (   0.000000   0.707107   0.707107 )  
               a(2) = (   0.707107   0.000000   0.707107 )  
               a(3) = (   0.707107   0.707107   0.000000 )  

     reciprocal axes: (cart. coord. in units 2 pi/alat)
               b(1) = ( -0.707107  0.707107  0.707107 )  
               b(2) = (  0.707107 -0.707107  0.707107 )  
               b(3) = (  0.707107  0.707107 -0.707107 )  


     PseudoPot. # 1 for Mg read from file:
     /home/bond/Software/qe-7.1/pseudo/Mg.pbe-spnl-kjpaw_psl.1.0.0.UPF
     MD5 check sum: fda14e0d92a6a9a5ebed782e5a4b3067
     Pseudo is Projector augmented-wave + core cor, Zval = 10.0
     Generated using &quot;atomic&quot; code by A. Dal Corso  v.6.3
     Shape of augmentation charge: PSQ
     Using radial grid of 1129 points,  4 beta functions with: 
                l(1) =   0
                l(2) =   0
                l(3) =   1
                l(4) =   1
     Q(r) pseudized with 0 coefficients 


     PseudoPot. # 2 for O  read from file:
     /home/bond/Software/qe-7.1/pseudo/O.pbe-n-kjpaw_psl.1.0.0.UPF
     MD5 check sum: e99d9cef9b487d1ca56f5b95ecd0fd7a
     Pseudo is Projector augmented-wave + core cor, Zval =  6.0
     Generated using &quot;atomic&quot; code by A. Dal Corso  v.6.3
     Shape of augmentation charge: PSQ
     Using radial grid of 1095 points,  4 beta functions with: 
                l(1) =   0
                l(2) =   0
                l(3) =   1
                l(4) =   1
     Q(r) pseudized with 0 coefficients 


     atomic species   valence    mass     pseudopotential
        Mg            10.00    24.30500     Mg( 1.00)
        O              6.00    15.99900     O ( 1.00)

     48 Sym. Ops., with inversion, found



   Cartesian axes

     site n.     atom                  positions (alat units)
         1           Mg  tau(   1) = (   0.0000000   0.0000000   0.0000000  )
         2           O   tau(   2) = (   0.7071068   0.0000000   0.0000000  )

     number of k points=    10  Methfessel-Paxton smearing, width (Ry)=  0.0200
                       cart. coord. in units 2pi/alat
        k(    1) = (   0.0000000   0.0000000   0.0000000), wk =   0.0160000
        k(    2) = (   0.1414214   0.1414214  -0.1414214), wk =   0.1280000
        k(    3) = (   0.2828427   0.2828427  -0.2828427), wk =   0.1280000
        k(    4) = (   0.2828427   0.0000000   0.0000000), wk =   0.0960000
        k(    5) = (   0.4242641   0.1414214  -0.1414214), wk =   0.3840000
        k(    6) = (  -0.1414214  -0.4242641   0.4242641), wk =   0.3840000
        k(    7) = (   0.0000000  -0.2828427   0.2828427), wk =   0.1920000
        k(    8) = (   0.5656854   0.0000000   0.0000000), wk =   0.0960000
        k(    9) = (   0.0000000  -0.5656854   0.5656854), wk =   0.1920000
        k(   10) = (  -0.1414214  -0.4242641   0.7071068), wk =   0.3840000

     Dense  grid:    28571 G-vectors     FFT dimensions: (  45,  45,  45)

     Smooth grid:    10081 G-vectors     FFT dimensions: (  32,  32,  32)

     Estimated max dynamical RAM per process >      22.91 MB

     Estimated total dynamical RAM >      45.82 MB

     Check: negative core charge=   -0.000004

     Initial potential from superposition of free atoms

     starting charge      15.9991, renormalised to      16.0000
     Starting wfcs are    9 randomized atomic wfcs +    3 random wfcs
     Checking if some PAW data can be deallocated... 

     total cpu time spent up to now is        1.4 secs

     Self-consistent Calculation

     iteration #  1     ecut=    70.00 Ry     beta= 0.70
     Davidson diagonalization with overlap
     ethr =  1.00E-02,  avg # of iterations =  7.0

     total cpu time spent up to now is        1.8 secs

     total energy              =    -183.12626380 Ry
     estimated scf accuracy    <       0.40778716 Ry

     iteration #  2     ecut=    70.00 Ry     beta= 0.70
     Davidson diagonalization with overlap
     ethr =  2.55E-03,  avg # of iterations =  4.0

     total cpu time spent up to now is        2.2 secs

     total energy              =    -183.23714477 Ry
     estimated scf accuracy    <       0.39995390 Ry

     iteration #  3     ecut=    70.00 Ry     beta= 0.70
     Davidson diagonalization with overlap
     ethr =  2.50E-03,  avg # of iterations =  1.3

     total cpu time spent up to now is        2.5 secs

     total energy              =    -183.29650005 Ry
     estimated scf accuracy    <       0.00864394 Ry

     iteration #  4     ecut=    70.00 Ry     beta= 0.70
     Davidson diagonalization with overlap
     ethr =  5.40E-05,  avg # of iterations =  4.9

     total cpu time spent up to now is        3.0 secs

     total energy              =    -183.31289703 Ry
     estimated scf accuracy    <       0.03966560 Ry

     iteration #  5     ecut=    70.00 Ry     beta= 0.70
     Davidson diagonalization with overlap
     ethr =  5.40E-05,  avg # of iterations =  3.2

     total cpu time spent up to now is        3.4 secs

     total energy              =    -183.31470473 Ry
     estimated scf accuracy    <       0.00407468 Ry

     iteration #  6     ecut=    70.00 Ry     beta= 0.70
     Davidson diagonalization with overlap
     ethr =  2.55E-05,  avg # of iterations =  3.2

     total cpu time spent up to now is        3.7 secs

     total energy              =    -183.31604680 Ry
     estimated scf accuracy    <       0.00002498 Ry

     iteration #  7     ecut=    70.00 Ry     beta= 0.70
     Davidson diagonalization with overlap
     ethr =  1.56E-07,  avg # of iterations =  5.6

     total cpu time spent up to now is        4.2 secs

     total energy              =    -183.31609399 Ry
     estimated scf accuracy    <       0.00030156 Ry

     iteration #  8     ecut=    70.00 Ry     beta= 0.70
     Davidson diagonalization with overlap
     ethr =  1.56E-07,  avg # of iterations =  4.0

     total cpu time spent up to now is        4.6 secs

     total energy              =    -183.31610358 Ry
     estimated scf accuracy    <       0.00006672 Ry

     iteration #  9     ecut=    70.00 Ry     beta= 0.70
     Davidson diagonalization with overlap
     ethr =  1.56E-07,  avg # of iterations =  1.0

     total cpu time spent up to now is        4.9 secs

     total energy              =    -183.31609724 Ry
     estimated scf accuracy    <       0.00005187 Ry

     iteration # 10     ecut=    70.00 Ry     beta= 0.70
     Davidson diagonalization with overlap
     ethr =  1.56E-07,  avg # of iterations =  1.0

     total cpu time spent up to now is        5.2 secs

     total energy              =    -183.31609539 Ry
     estimated scf accuracy    <       0.00003058 Ry

     iteration # 11     ecut=    70.00 Ry     beta= 0.70
     Davidson diagonalization with overlap
     ethr =  1.56E-07,  avg # of iterations =  1.0

     total cpu time spent up to now is        5.5 secs

     total energy              =    -183.31609433 Ry
     estimated scf accuracy    <       0.00002104 Ry

     iteration # 12     ecut=    70.00 Ry     beta= 0.70
     Davidson diagonalization with overlap
     ethr =  1.31E-07,  avg # of iterations =  1.0

     total cpu time spent up to now is        5.9 secs

     total energy              =    -183.31609363 Ry
     estimated scf accuracy    <       0.00001611 Ry

     iteration # 13     ecut=    70.00 Ry     beta= 0.70
     Davidson diagonalization with overlap
     ethr =  1.01E-07,  avg # of iterations =  1.2

     total cpu time spent up to now is        6.3 secs

     total energy              =    -183.31608970 Ry
     estimated scf accuracy    <       0.00001198 Ry

     iteration # 14     ecut=    70.00 Ry     beta= 0.70
     Davidson diagonalization with overlap
     ethr =  7.49E-08,  avg # of iterations =  1.0

     total cpu time spent up to now is        6.6 secs

     total energy              =    -183.31609025 Ry
     estimated scf accuracy    <       0.00000170 Ry

     iteration # 15     ecut=    70.00 Ry     beta= 0.70
     Davidson diagonalization with overlap
     ethr =  1.06E-08,  avg # of iterations =  2.3

     total cpu time spent up to now is        6.9 secs

     total energy              =    -183.31609059 Ry
     estimated scf accuracy    <       0.00000015 Ry

     iteration # 16     ecut=    70.00 Ry     beta= 0.70
     Davidson diagonalization with overlap
     ethr =  9.37E-10,  avg # of iterations =  3.2

     total cpu time spent up to now is        7.3 secs

     End of self-consistent calculation

          k = 0.0000 0.0000 0.0000 (  1243 PWs)   bands (ev):

   -64.7130 -31.4327 -31.4327 -31.4327  -9.5396   7.6442   7.6442   7.6442
    12.2614  23.4099  23.4099  23.4099

          k = 0.1414 0.1414-0.1414 (  1272 PWs)   bands (ev):

   -64.7102 -31.4617 -31.4360 -31.4360  -9.1425   5.6910   7.4115   7.4115
    14.0877  20.6321  24.1123  24.1123

          k = 0.2828 0.2828-0.2828 (  1263 PWs)   bands (ev):

   -64.7057 -31.5068 -31.4407 -31.4407  -8.4027   3.4422   7.0634   7.0634
    15.4182  19.9654  23.9908  23.9908

          k = 0.2828 0.0000 0.0000 (  1295 PWs)   bands (ev):

   -64.7093 -31.4594 -31.4429 -31.4429  -9.0290   5.6400   7.1298   7.1298
    14.7402  19.6787  24.5363  24.5364

          k = 0.4243 0.1414-0.1414 (  1266 PWs)   bands (ev):

   -64.7053 -31.4913 -31.4509 -31.4483  -8.4293   4.1489   6.4271   6.7896
    16.5501  18.9047  21.9231  24.9393

          k =-0.1414-0.4243 0.4243 (  1267 PWs)   bands (ev):

   -64.7038 -31.5023 -31.4608 -31.4456  -8.1551   3.6602   5.7874   6.8347
    16.9979  19.8015  21.2632  24.7040

          k = 0.0000-0.2828 0.2828 (  1267 PWs)   bands (ev):

   -64.7068 -31.4821 -31.4537 -31.4378  -8.6395   4.5837   6.3367   7.2123
    15.9776  19.4991  22.6533  25.3435

          k = 0.5657 0.0000 0.0000 (  1258 PWs)   bands (ev):

   -64.7033 -31.4960 -31.4579 -31.4579  -8.1874   3.8606   6.4286   6.4286
    17.1046  17.3681  20.7608  26.1693

          k = 0.0000-0.5657 0.5657 (  1260 PWs)   bands (ev):

   -64.7023 -31.4943 -31.4727 -31.4560  -8.0155   4.0157   5.3454   6.4531
    17.4850  18.7873  20.2425  25.8560

          k =-0.1414-0.4243 0.7071 (  1243 PWs)   bands (ev):

   -64.7029 -31.4902 -31.4715 -31.4549  -8.0730   4.2149   5.3168   6.2878
    18.6029  18.7405  20.2189  24.0168

     the Fermi energy is    10.8296 ev

!    total energy              =    -183.31609064 Ry
     total all-electron energy =      -551.433250 Ry
     estimated scf accuracy    <          3.1E-09 Ry
     smearing contrib. (-TS)   =       0.00000000 Ry
     internal energy E=F+TS    =    -183.31609064 Ry

     The total energy is F=E-TS. E is the sum of the following terms:
     one-electron contribution =     -88.69257008 Ry
     hartree contribution      =      49.57958631 Ry
     xc contribution           =     -25.30128826 Ry
     ewald contribution        =     -94.36483036 Ry
     one-center paw contrib.   =     -24.53698825 Ry

     convergence has been achieved in  16 iterations

     Forces acting on atoms (cartesian axes, Ry/au):

     atom    1 type  1   force =     0.00000000    0.00000000    0.00000000
     atom    2 type  2   force =     0.00000000    0.00000000    0.00000000

     Total force =     0.000000     Total SCF correction =     0.000000


     Computing stress (Cartesian axis) and pressure

          total   stress  (Ry/bohr**3)                   (kbar)     P=       13.89
   0.00009441  -0.00000000  -0.00000000           13.89       -0.00       -0.00
  -0.00000000   0.00009441   0.00000000           -0.00       13.89        0.00
   0.00000000   0.00000000   0.00009441            0.00        0.00       13.89


     BFGS Geometry Optimization
     Energy error            =      0.0E+00 Ry
     Gradient error          =      0.0E+00 Ry/Bohr

     bfgs converged in   1 scf cycles and   0 bfgs steps
     (criteria: energy <  1.0E-04 Ry, force <  1.0E-03 Ry/Bohr)

     End of BFGS Geometry Optimization

     Final energy             =    -183.3160906378 Ry
Begin final coordinates

ATOMIC_POSITIONS (angstrom)
Mg            0.0000000000        0.0000000000        0.0000000000
O             2.1150000000        0.0000000000        0.0000000000
End final coordinates



     init_run     :      0.98s CPU      1.05s WALL (       1 calls)
     electrons    :      5.59s CPU      5.92s WALL (       1 calls)
     forces       :      0.11s CPU      0.12s WALL (       1 calls)
     stress       :      0.40s CPU      0.44s WALL (       1 calls)

     Called by init_run:
     wfcinit      :      0.08s CPU      0.08s WALL (       1 calls)
     potinit      :      0.22s CPU      0.24s WALL (       1 calls)
     hinit0       :      0.48s CPU      0.52s WALL (       1 calls)

     Called by electrons:
     c_bands      :      2.71s CPU      2.90s WALL (      16 calls)
     sum_band     :      0.97s CPU      1.01s WALL (      16 calls)
     v_of_rho     :      0.65s CPU      0.69s WALL (      17 calls)
     newd         :      0.32s CPU      0.35s WALL (      17 calls)
     PAW_pot      :      0.91s CPU      0.94s WALL (      17 calls)
     mix_rho      :      0.08s CPU      0.08s WALL (      16 calls)

     Called by c_bands:
     init_us_2    :      0.10s CPU      0.10s WALL (     350 calls)
     init_us_2:cp :      0.09s CPU      0.10s WALL (     350 calls)
     cegterg      :      2.59s CPU      2.76s WALL (     160 calls)

     Called by *egterg:
     cdiaghg      :      0.18s CPU      0.19s WALL (     609 calls)
     h_psi        :      2.06s CPU      2.20s WALL (     619 calls)
     s_psi        :      0.05s CPU      0.05s WALL (     619 calls)
     g_psi        :      0.02s CPU      0.02s WALL (     449 calls)

     Called by h_psi:
     h_psi:calbec :      0.08s CPU      0.08s WALL (     619 calls)
     vloc_psi     :      1.91s CPU      2.04s WALL (     619 calls)
     add_vuspsi   :      0.05s CPU      0.06s WALL (     619 calls)

     General routines
     calbec       :      0.11s CPU      0.12s WALL (     829 calls)
     fft          :      0.51s CPU      0.56s WALL (     244 calls)
     ffts         :      0.12s CPU      0.12s WALL (      33 calls)
     fftw         :      1.88s CPU      2.00s WALL (   11510 calls)
     interpolate  :      0.15s CPU      0.16s WALL (      17 calls)

     Parallel routines

     PWSCF        :      7.41s CPU      7.89s WALL


   This run was terminated on:   2:31:33   7May2024            

=------------------------------------------------------------------------------=
   JOB DONE.
=------------------------------------------------------------------------------=
