
     Program PWSCF v.7.1 starts on  6May2024 at  1:17:56 

     This program is part of the open-source Quantum ESPRESSO suite
     for quantum simulation of materials; please cite
         "P. Giannozzi et al., J. Phys.:Condens. Matter 21 395502 (2009);
         "P. Giannozzi et al., J. Phys.:Condens. Matter 29 465901 (2017);
         "P. Giannozzi et al., J. Chem. Phys. 152 154105 (2020);
          URL http://www.quantum-espresso.org", 
     in publications or presentations arising from this work. More details at
     http://www.quantum-espresso.org/quote

     Parallel version (MPI), running on     2 processors

     MPI processes distributed on     1 nodes
     13556 MiB available memory on the printing compute node when the environment starts

     Waiting for input...
     Reading input from standard input
Warning: card &CELL ignored
Warning: card / ignored

     Current dimensions of program PWSCF are:
     Max number of different atomic species (ntypx) = 10
     Max number of k-points (npk) =  40000
     Max angular momentum in pseudopotentials (lmaxx) =  4
     file Ba.pbe-spn-kjpaw_psl.1.0.0.UPF: wavefunction(s)  5S 6S renormalized
     file Bi.pbe-dn-kjpaw_psl.1.0.0.UPF: wavefunction(s)  6P 5D renormalized
     file O.pbe-n-kjpaw_psl.1.0.0.UPF: wavefunction(s)  2S 2P renormalized
     Message from routine setup:
     using ibrav=0 with symmetry is DISCOURAGED, use correct ibrav instead

     R & G space division:  proc/nbgrp/npool/nimage =       2
     Subspace diagonalization in iterative solution of the eigenvalue problem:
     a serial algorithm will be used


     Parallelization info
     --------------------
     sticks:   dense  smooth     PW     G-vecs:    dense   smooth      PW
     Min        1224     612    178                45810    16210    2592
     Max        1225     613    179                45813    16213    2593
     Sum        2449    1225    357                91623    32423    5185

     Using Slab Decomposition



     bravais-lattice index     =            0
     lattice parameter (alat)  =       8.3715  a.u.
     unit-cell volume          =     586.6888 (a.u.)^3
     number of atoms/cell      =            5
     number of atomic types    =            3
     number of electrons       =        43.00
     number of Kohn-Sham states=           26
     kinetic-energy cutoff     =      55.0000  Ry
     charge density cutoff     =     440.0000  Ry
     scf convergence threshold =      1.0E-07
     mixing beta               =       0.7000
     number of iterations used =            8  plain     mixing
     Exchange-correlation= SLA  PW   PBX  PBC
                           (   1   4   3   4   0   0   0)

     celldm(1)=   8.371487  celldm(2)=   0.000000  celldm(3)=   0.000000
     celldm(4)=   0.000000  celldm(5)=   0.000000  celldm(6)=   0.000000

     crystal axes: (cart. coord. in units of alat)
               a(1) = (   1.000000   0.000000   0.000000 )  
               a(2) = (   0.000000   1.000000   0.000000 )  
               a(3) = (   0.000000   0.000000   1.000000 )  

     reciprocal axes: (cart. coord. in units 2 pi/alat)
               b(1) = (  1.000000  0.000000  0.000000 )  
               b(2) = (  0.000000  1.000000  0.000000 )  
               b(3) = (  0.000000  0.000000  1.000000 )  


     PseudoPot. # 1 for Ba read from file:
     /home/bond/Software/qe-7.1/pseudo/Ba.pbe-spn-kjpaw_psl.1.0.0.UPF
     MD5 check sum: 7cfe25f1fe7574a4710541d5a11d6531
     Pseudo is Projector augmented-wave + core cor, Zval = 10.0
     Generated using &quot;atomic&quot; code by A. Dal Corso  v.6.2.2
     Shape of augmentation charge: PSQ
     Using radial grid of 1251 points,  7 beta functions with: 
                l(1) =   0
                l(2) =   0
                l(3) =   0
                l(4) =   1
                l(5) =   1
                l(6) =   2
                l(7) =   2
     Q(r) pseudized with 0 coefficients 


     PseudoPot. # 2 for Bi read from file:
     /home/bond/Software/qe-7.1/pseudo/Bi.pbe-dn-kjpaw_psl.1.0.0.UPF
     MD5 check sum: 266ded784ae3bc462508ed03f0f37963
     Pseudo is Projector augmented-wave + core cor, Zval = 15.0
     Generated using &quot;atomic&quot; code by A. Dal Corso  v.6.2.2
     Shape of augmentation charge: PSQ
     Using radial grid of 1283 points,  6 beta functions with: 
                l(1) =   0
                l(2) =   0
                l(3) =   1
                l(4) =   1
                l(5) =   2
                l(6) =   2
     Q(r) pseudized with 0 coefficients 


     PseudoPot. # 3 for O  read from file:
     /home/bond/Software/qe-7.1/pseudo/O.pbe-n-kjpaw_psl.1.0.0.UPF
     MD5 check sum: e99d9cef9b487d1ca56f5b95ecd0fd7a
     Pseudo is Projector augmented-wave + core cor, Zval =  6.0
     Generated using &quot;atomic&quot; code by A. Dal Corso  v.6.3
     Shape of augmentation charge: PSQ
     Using radial grid of 1095 points,  4 beta functions with: 
                l(1) =   0
                l(2) =   0
                l(3) =   1
                l(4) =   1
     Q(r) pseudized with 0 coefficients 


     atomic species   valence    mass     pseudopotential
        Ba            10.00   137.32700     Ba( 1.00)
        Bi            15.00   208.98040     Bi( 1.00)
        O              6.00    15.99900     O ( 1.00)

     48 Sym. Ops., with inversion, found



   Cartesian axes

     site n.     atom                  positions (alat units)
         1           Ba  tau(   1) = (   0.5000000   0.5000000   0.5000000  )
         2           Bi  tau(   2) = (   0.0000000   0.0000000   0.0000000  )
         3           O   tau(   3) = (   0.0000000   0.0000000   0.5000000  )
         4           O   tau(   4) = (   0.5000000   0.0000000   0.0000000  )
         5           O   tau(   5) = (   0.0000000   0.5000000   0.0000000  )

     number of k points=    10  Methfessel-Paxton smearing, width (Ry)=  0.0200
                       cart. coord. in units 2pi/alat
        k(    1) = (   0.0000000   0.0000000   0.0000000), wk =   0.0312500
        k(    2) = (   0.0000000   0.0000000   0.2500000), wk =   0.1875000
        k(    3) = (   0.0000000   0.0000000  -0.5000000), wk =   0.0937500
        k(    4) = (   0.0000000   0.2500000   0.2500000), wk =   0.3750000
        k(    5) = (   0.0000000   0.2500000  -0.5000000), wk =   0.3750000
        k(    6) = (   0.0000000  -0.5000000  -0.5000000), wk =   0.0937500
        k(    7) = (   0.2500000   0.2500000   0.2500000), wk =   0.2500000
        k(    8) = (   0.2500000   0.2500000  -0.5000000), wk =   0.3750000
        k(    9) = (   0.2500000  -0.5000000  -0.5000000), wk =   0.1875000
        k(   10) = (  -0.5000000  -0.5000000  -0.5000000), wk =   0.0312500

     Dense  grid:    91623 G-vectors     FFT dimensions: (  60,  60,  60)

     Smooth grid:    32423 G-vectors     FFT dimensions: (  40,  40,  40)

     Estimated max dynamical RAM per process >     200.25 MB

     Estimated total dynamical RAM >     400.51 MB

     Initial potential from superposition of free atoms

     starting charge      42.9822, renormalised to      43.0000
     Starting wfcs are   26 randomized atomic wfcs
     Checking if some PAW data can be deallocated... 

     total cpu time spent up to now is        4.8 secs

     Self-consistent Calculation

     iteration #  1     ecut=    55.00 Ry     beta= 0.70
     Davidson diagonalization with overlap
     ethr =  1.00E-02,  avg # of iterations =  4.4
     Minimization algorithm failed to find Fermi energy: reverting to bisection
     Possible cause: smearing is larger than the electronic band-gap.

     total cpu time spent up to now is        8.5 secs

     total energy              =   -1466.58627067 Ry
     estimated scf accuracy    <       1.80655356 Ry

     iteration #  2     ecut=    55.00 Ry     beta= 0.70
     Davidson diagonalization with overlap
     ethr =  4.20E-03,  avg # of iterations =  6.4

     total cpu time spent up to now is       13.0 secs

     total energy              =   -1467.10990370 Ry
     estimated scf accuracy    <       4.12304604 Ry

     iteration #  3     ecut=    55.00 Ry     beta= 0.70
     Davidson diagonalization with overlap
     ethr =  4.20E-03,  avg # of iterations =  3.0

     total cpu time spent up to now is       16.8 secs

     total energy              =   -1467.44841978 Ry
     estimated scf accuracy    <       0.35645659 Ry

     iteration #  4     ecut=    55.00 Ry     beta= 0.70
     Davidson diagonalization with overlap
     ethr =  8.29E-04,  avg # of iterations =  5.6

     total cpu time spent up to now is       21.1 secs

     total energy              =   -1467.76545029 Ry
     estimated scf accuracy    <       0.21261284 Ry

     iteration #  5     ecut=    55.00 Ry     beta= 0.70
     Davidson diagonalization with overlap
     ethr =  4.94E-04,  avg # of iterations =  2.4

     total cpu time spent up to now is       24.5 secs

     total energy              =   -1467.73901966 Ry
     estimated scf accuracy    <       0.07570670 Ry

     iteration #  6     ecut=    55.00 Ry     beta= 0.70
     Davidson diagonalization with overlap
     ethr =  1.76E-04,  avg # of iterations =  6.9

     total cpu time spent up to now is       28.6 secs

     total energy              =   -1467.76698329 Ry
     estimated scf accuracy    <       0.00424805 Ry

     iteration #  7     ecut=    55.00 Ry     beta= 0.70
     Davidson diagonalization with overlap
     c_bands:  1 eigenvalues not converged
     c_bands:  1 eigenvalues not converged
     c_bands:  1 eigenvalues not converged
     ethr =  9.88E-06,  avg # of iterations = 13.1

     total cpu time spent up to now is       33.1 secs

     total energy              =   -1467.76611070 Ry
     estimated scf accuracy    <       0.00920305 Ry

     iteration #  8     ecut=    55.00 Ry     beta= 0.70
     Davidson diagonalization with overlap
     ethr =  9.88E-06,  avg # of iterations =  2.0

     total cpu time spent up to now is       36.2 secs

     total energy              =   -1467.76450676 Ry
     estimated scf accuracy    <       0.00316245 Ry

     iteration #  9     ecut=    55.00 Ry     beta= 0.70
     Davidson diagonalization with overlap
     ethr =  7.35E-06,  avg # of iterations =  5.0

     total cpu time spent up to now is       40.3 secs

     total energy              =   -1467.76632220 Ry
     estimated scf accuracy    <       0.00255858 Ry

     iteration # 10     ecut=    55.00 Ry     beta= 0.70
     Davidson diagonalization with overlap
     ethr =  5.95E-06,  avg # of iterations =  2.1

     total cpu time spent up to now is       43.4 secs

     total energy              =   -1467.76628172 Ry
     estimated scf accuracy    <       0.00075454 Ry

     iteration # 11     ecut=    55.00 Ry     beta= 0.70
     Davidson diagonalization with overlap
     ethr =  1.75E-06,  avg # of iterations =  2.3

     total cpu time spent up to now is       46.6 secs

     total energy              =   -1467.76640894 Ry
     estimated scf accuracy    <       0.00011497 Ry

     iteration # 12     ecut=    55.00 Ry     beta= 0.70
     Davidson diagonalization with overlap
     ethr =  2.67E-07,  avg # of iterations =  4.2

     total cpu time spent up to now is       49.9 secs

     total energy              =   -1467.76640331 Ry
     estimated scf accuracy    <       0.00008009 Ry

     iteration # 13     ecut=    55.00 Ry     beta= 0.70
     Davidson diagonalization with overlap
     ethr =  1.86E-07,  avg # of iterations =  2.8

     total cpu time spent up to now is       53.2 secs

     total energy              =   -1467.76639939 Ry
     estimated scf accuracy    <       0.00002093 Ry

     iteration # 14     ecut=    55.00 Ry     beta= 0.70
     Davidson diagonalization with overlap
     ethr =  4.87E-08,  avg # of iterations =  5.0

     total cpu time spent up to now is       57.3 secs

     total energy              =   -1467.76643012 Ry
     estimated scf accuracy    <       0.00002961 Ry

     iteration # 15     ecut=    55.00 Ry     beta= 0.70
     Davidson diagonalization with overlap
     ethr =  4.87E-08,  avg # of iterations =  1.6

     total cpu time spent up to now is       60.4 secs

     total energy              =   -1467.76642297 Ry
     estimated scf accuracy    <       0.00004473 Ry

     iteration # 16     ecut=    55.00 Ry     beta= 0.70
     Davidson diagonalization with overlap
     ethr =  4.87E-08,  avg # of iterations =  1.2

     total cpu time spent up to now is       63.4 secs

     total energy              =   -1467.76642073 Ry
     estimated scf accuracy    <       0.00002638 Ry

     iteration # 17     ecut=    55.00 Ry     beta= 0.70
     Davidson diagonalization with overlap
     ethr =  4.87E-08,  avg # of iterations =  1.1

     total cpu time spent up to now is       66.5 secs

     total energy              =   -1467.76642190 Ry
     estimated scf accuracy    <       0.00001686 Ry

     iteration # 18     ecut=    55.00 Ry     beta= 0.70
     Davidson diagonalization with overlap
     ethr =  3.92E-08,  avg # of iterations =  1.0

     total cpu time spent up to now is       69.6 secs

     total energy              =   -1467.76642215 Ry
     estimated scf accuracy    <       0.00001872 Ry

     iteration # 19     ecut=    55.00 Ry     beta= 0.70
     Davidson diagonalization with overlap
     ethr =  3.92E-08,  avg # of iterations =  1.0

     total cpu time spent up to now is       72.6 secs

     total energy              =   -1467.76641447 Ry
     estimated scf accuracy    <       0.00001858 Ry

     iteration # 20     ecut=    55.00 Ry     beta= 0.70
     Davidson diagonalization with overlap
     ethr =  3.92E-08,  avg # of iterations =  1.8

     total cpu time spent up to now is       75.9 secs

     total energy              =   -1467.76641601 Ry
     estimated scf accuracy    <       0.00000213 Ry

     iteration # 21     ecut=    55.00 Ry     beta= 0.70
     Davidson diagonalization with overlap
     ethr =  4.95E-09,  avg # of iterations =  5.0

     total cpu time spent up to now is       79.8 secs

     total energy              =   -1467.76641765 Ry
     estimated scf accuracy    <       0.00000029 Ry

     iteration # 22     ecut=    55.00 Ry     beta= 0.70
     Davidson diagonalization with overlap
     ethr =  6.64E-10,  avg # of iterations =  4.5

     total cpu time spent up to now is       83.5 secs

     End of self-consistent calculation

          k = 0.0000 0.0000 0.0000 (  3959 PWs)   bands (ev):

   -17.3310 -13.1686 -13.1686 -12.7886 -12.7886 -12.7886  -8.8762  -6.5554
    -6.5554  -2.4413  -2.4413  -2.4413   3.2155   4.0398   4.0398   4.0398
     7.6432   7.6432   7.6432   7.8635   7.8635   7.8635  12.9884  12.9884
    14.0283  14.9175

          k = 0.0000 0.0000 0.2500 (  4044 PWs)   bands (ev):

   -17.3191 -13.1686 -13.0902 -12.7935 -12.7935 -12.7888  -8.7228  -7.0171
    -6.5496  -2.4035  -2.4035  -2.3830   1.6717   4.0491   4.0491   6.0282
     7.3778   7.5287   7.5287   7.7472   7.7472   8.2125  13.6500  13.6680
    15.0418  15.3653

          k = 0.0000 0.0000-0.5000 (  4068 PWs)   bands (ev):

   -17.3072 -13.1683 -13.0089 -12.7979 -12.7979 -12.7889  -8.3984  -7.6416
    -6.5437  -2.3649  -2.3649  -2.3421   1.0713   4.0511   4.0511   6.4002
     7.1476   7.4885   7.4885   7.5815   7.5815   9.7639  14.1339  14.3492
    15.7456  15.8118

          k = 0.0000 0.2500 0.2500 (  4060 PWs)   bands (ev):

   -17.3086 -13.1303 -13.0461 -12.7969 -12.7934 -12.7932  -8.5642  -7.1588
    -6.8093  -2.4486  -2.3735  -2.3598   0.5995   4.1233   5.4446   6.1414
     7.0262   7.3912   7.5914   7.6614   8.0312   8.6701  14.0125  14.4379
    15.1059  15.4694

          k = 0.0000 0.2500-0.5000 (  4044 PWs)   bands (ev):

   -17.2981 -13.1197 -12.9709 -12.8003 -12.7974 -12.7929  -8.2131  -7.6730
    -6.8917  -2.4257  -2.4158  -2.3430   0.0313   4.1974   5.8510   6.2751
     7.1135   7.3379   7.3673   7.6009   8.0328  10.1739  14.3139  14.8011
    15.0696  15.8296

          k = 0.0000-0.5000-0.5000 (  4076 PWs)   bands (ev):

   -17.2889 -13.0931 -12.9081 -12.8032 -12.7972 -12.7972  -7.7049  -7.7049
    -7.5777  -2.4827  -2.4827  -2.3208  -0.5619   4.3609   6.0983   7.1679
     7.1679   7.2667   7.2667   7.6214   8.3682  11.3185  14.1834  14.1834
    14.6841  15.0983

          k = 0.2500 0.2500 0.2500 (  4025 PWs)   bands (ev):

   -17.2990 -13.0453 -13.0453 -12.7972 -12.7972 -12.7961  -8.4151  -7.1376
    -7.1376  -2.4782  -2.4782  -2.3346  -0.3384   5.5114   5.5114   6.2108
     7.0530   7.0530   7.9440   7.9440   8.0125   9.0051  14.2795  14.2795
    14.8577  15.3451

          k = 0.2500 0.2500-0.5000 (  4028 PWs)   bands (ev):

   -17.2893 -13.0449 -12.9571 -12.8017 -12.7999 -12.7970  -8.0695  -7.6733
    -7.1160  -2.5083  -2.4937  -2.4048  -0.9166   5.5767   6.2534   6.4263
     6.9179   7.2145   7.7793   7.8675   8.1325  10.4555  13.6006  14.2782
    14.7714  15.2404

          k = 0.2500-0.5000-0.5000 (  4064 PWs)   bands (ev):

   -17.2805 -13.0025 -12.9078 -12.8045 -12.8017 -12.8017  -7.6741  -7.6741
    -7.6077  -2.5641  -2.5641  -2.4881  -1.5471   6.0413   6.5041   6.9411
     6.9411   7.6268   7.8957   7.8957   8.3933  11.5334  13.0710  13.0710
    13.8517  15.6762

          k =-0.5000-0.5000-0.5000 (  4032 PWs)   bands (ev):

   -17.2720 -12.9073 -12.9073 -12.8058 -12.8058 -12.8058  -7.6426  -7.6426
    -7.6426  -2.6451  -2.6451  -2.6451  -2.2534   6.9097   6.9097   6.9097
     7.6321   7.6321   8.4188   8.4188   8.4188  12.1821  12.1821  12.1821
    12.6842  16.6831

     the Fermi energy is    10.0648 ev

!    total energy              =   -1467.76641771 Ry
     total all-electron energy =    -59784.858200 Ry
     estimated scf accuracy    <       0.00000007 Ry
     smearing contrib. (-TS)   =      -0.00007762 Ry
     internal energy E=F+TS    =   -1467.76634009 Ry

     The total energy is F=E-TS. E is the sum of the following terms:
     one-electron contribution =     -84.11702722 Ry
     hartree contribution      =      73.68801731 Ry
     xc contribution           =     -75.26921105 Ry
     ewald contribution        =    -221.76066282 Ry
     one-center paw contrib.   =   -1160.30745631 Ry

     convergence has been achieved in  22 iterations

     Forces acting on atoms (cartesian axes, Ry/au):

     atom    1 type  1   force =     0.00000000    0.00000000    0.00000000
     atom    2 type  2   force =     0.00000000    0.00000000    0.00000000
     atom    3 type  3   force =     0.00000000    0.00000000    0.00000000
     atom    4 type  3   force =     0.00000000    0.00000000    0.00000000
     atom    5 type  3   force =     0.00000000    0.00000000    0.00000000

     Total force =     0.000000     Total SCF correction =     0.000000


     Computing stress (Cartesian axis) and pressure

          total   stress  (Ry/bohr**3)                   (kbar)     P=      -12.16
  -0.00008267   0.00000000   0.00000000          -12.16        0.00        0.00
   0.00000000  -0.00008267   0.00000000            0.00      -12.16        0.00
   0.00000000   0.00000000  -0.00008267            0.00        0.00      -12.16


     init_run     :      3.35s CPU      3.73s WALL (       1 calls)
     electrons    :     69.02s CPU     78.75s WALL (       1 calls)
     forces       :      1.02s CPU      1.19s WALL (       1 calls)
     stress       :      5.05s CPU      5.66s WALL (       1 calls)

     Called by init_run:
     wfcinit      :      0.59s CPU      0.61s WALL (       1 calls)
     potinit      :      0.94s CPU      1.00s WALL (       1 calls)
     hinit0       :      1.29s CPU      1.40s WALL (       1 calls)

     Called by electrons:
     c_bands      :     33.77s CPU     36.02s WALL (      22 calls)
     sum_band     :     13.96s CPU     17.75s WALL (      22 calls)
     v_of_rho     :      2.11s CPU      2.23s WALL (      23 calls)
     newd         :      7.64s CPU     10.67s WALL (      23 calls)
     PAW_pot      :     12.05s CPU     12.76s WALL (      23 calls)
     mix_rho      :      0.32s CPU      0.35s WALL (      22 calls)

     Called by c_bands:
     init_us_2    :      0.86s CPU      0.93s WALL (     470 calls)
     init_us_2:cp :      0.86s CPU      0.93s WALL (     470 calls)
     cegterg      :     31.78s CPU     33.89s WALL (     220 calls)

     Called by *egterg:
     cdiaghg      :      1.28s CPU      1.39s WALL (    1044 calls)
     h_psi        :     24.10s CPU     25.70s WALL (    1054 calls)
     s_psi        :      1.32s CPU      1.41s WALL (    1054 calls)
     g_psi        :      0.16s CPU      0.17s WALL (     824 calls)

     Called by h_psi:
     h_psi:calbec :      1.59s CPU      1.70s WALL (    1054 calls)
     vloc_psi     :     20.91s CPU     22.29s WALL (    1054 calls)
     add_vuspsi   :      1.44s CPU      1.54s WALL (    1054 calls)

     General routines
     calbec       :      2.20s CPU      2.37s WALL (    1324 calls)
     fft          :      1.57s CPU      1.66s WALL (     322 calls)
     ffts         :      0.28s CPU      0.29s WALL (      45 calls)
     fftw         :     22.09s CPU     23.53s WALL (   35592 calls)
     interpolate  :      0.37s CPU      0.38s WALL (      23 calls)

     Parallel routines

     PWSCF        :   1m19.38s CPU   1m30.39s WALL


   This run was terminated on:   1:19:26   6May2024            

=------------------------------------------------------------------------------=
   JOB DONE.
=------------------------------------------------------------------------------=
