
     Program PWSCF v.7.1 starts on  6May2024 at  3: 5:58 

     This program is part of the open-source Quantum ESPRESSO suite
     for quantum simulation of materials; please cite
         "P. Giannozzi et al., J. Phys.:Condens. Matter 21 395502 (2009);
         "P. Giannozzi et al., J. Phys.:Condens. Matter 29 465901 (2017);
         "P. Giannozzi et al., J. Chem. Phys. 152 154105 (2020);
          URL http://www.quantum-espresso.org", 
     in publications or presentations arising from this work. More details at
     http://www.quantum-espresso.org/quote

     Parallel version (MPI), running on     2 processors

     MPI processes distributed on     1 nodes
     13687 MiB available memory on the printing compute node when the environment starts

     Waiting for input...
     Reading input from standard input
Warning: card &CELL ignored
Warning: card / ignored

     Current dimensions of program PWSCF are:
     Max number of different atomic species (ntypx) = 10
     Max number of k-points (npk) =  40000
     Max angular momentum in pseudopotentials (lmaxx) =  4
     file Ba.pbe-spn-kjpaw_psl.1.0.0.UPF: wavefunction(s)  5S 6S renormalized
     file Bi.pbe-dn-kjpaw_psl.1.0.0.UPF: wavefunction(s)  6P 5D renormalized
     file O.pbe-n-kjpaw_psl.1.0.0.UPF: wavefunction(s)  2S 2P renormalized
     Message from routine setup:
     using ibrav=0 with symmetry is DISCOURAGED, use correct ibrav instead

     R & G space division:  proc/nbgrp/npool/nimage =       2
     Subspace diagonalization in iterative solution of the eigenvalue problem:
     a serial algorithm will be used


     Parallelization info
     --------------------
     sticks:   dense  smooth     PW     G-vecs:    dense   smooth      PW
     Min        1602     802    218                68337    24244    3560
     Max        1603     803    219                68338    24245    3563
     Sum        3205    1605    437               136675    48489    7123

     Using Slab Decomposition



     bravais-lattice index     =            0
     lattice parameter (alat)  =       8.4849  a.u.
     unit-cell volume          =     610.8515 (a.u.)^3
     number of atoms/cell      =            5
     number of atomic types    =            3
     number of electrons       =        43.00
     number of Kohn-Sham states=           26
     kinetic-energy cutoff     =      70.0000  Ry
     charge density cutoff     =     560.0000  Ry
     scf convergence threshold =      1.0E-07
     mixing beta               =       0.7000
     number of iterations used =            8  plain     mixing
     Exchange-correlation= SLA  PW   PBX  PBC
                           (   1   4   3   4   0   0   0)

     celldm(1)=   8.484870  celldm(2)=   0.000000  celldm(3)=   0.000000
     celldm(4)=   0.000000  celldm(5)=   0.000000  celldm(6)=   0.000000

     crystal axes: (cart. coord. in units of alat)
               a(1) = (   1.000000   0.000000   0.000000 )  
               a(2) = (   0.000000   1.000000   0.000000 )  
               a(3) = (   0.000000   0.000000   1.000000 )  

     reciprocal axes: (cart. coord. in units 2 pi/alat)
               b(1) = (  1.000000  0.000000  0.000000 )  
               b(2) = (  0.000000  1.000000  0.000000 )  
               b(3) = (  0.000000  0.000000  1.000000 )  


     PseudoPot. # 1 for Ba read from file:
     /home/bond/Software/qe-7.1/pseudo/Ba.pbe-spn-kjpaw_psl.1.0.0.UPF
     MD5 check sum: 7cfe25f1fe7574a4710541d5a11d6531
     Pseudo is Projector augmented-wave + core cor, Zval = 10.0
     Generated using &quot;atomic&quot; code by A. Dal Corso  v.6.2.2
     Shape of augmentation charge: PSQ
     Using radial grid of 1251 points,  7 beta functions with: 
                l(1) =   0
                l(2) =   0
                l(3) =   0
                l(4) =   1
                l(5) =   1
                l(6) =   2
                l(7) =   2
     Q(r) pseudized with 0 coefficients 


     PseudoPot. # 2 for Bi read from file:
     /home/bond/Software/qe-7.1/pseudo/Bi.pbe-dn-kjpaw_psl.1.0.0.UPF
     MD5 check sum: 266ded784ae3bc462508ed03f0f37963
     Pseudo is Projector augmented-wave + core cor, Zval = 15.0
     Generated using &quot;atomic&quot; code by A. Dal Corso  v.6.2.2
     Shape of augmentation charge: PSQ
     Using radial grid of 1283 points,  6 beta functions with: 
                l(1) =   0
                l(2) =   0
                l(3) =   1
                l(4) =   1
                l(5) =   2
                l(6) =   2
     Q(r) pseudized with 0 coefficients 


     PseudoPot. # 3 for O  read from file:
     /home/bond/Software/qe-7.1/pseudo/O.pbe-n-kjpaw_psl.1.0.0.UPF
     MD5 check sum: e99d9cef9b487d1ca56f5b95ecd0fd7a
     Pseudo is Projector augmented-wave + core cor, Zval =  6.0
     Generated using &quot;atomic&quot; code by A. Dal Corso  v.6.3
     Shape of augmentation charge: PSQ
     Using radial grid of 1095 points,  4 beta functions with: 
                l(1) =   0
                l(2) =   0
                l(3) =   1
                l(4) =   1
     Q(r) pseudized with 0 coefficients 


     atomic species   valence    mass     pseudopotential
        Ba            10.00   137.32700     Ba( 1.00)
        Bi            15.00   208.98040     Bi( 1.00)
        O              6.00    15.99900     O ( 1.00)

     48 Sym. Ops., with inversion, found



   Cartesian axes

     site n.     atom                  positions (alat units)
         1           Ba  tau(   1) = (   0.5000000   0.5000000   0.5000000  )
         2           Bi  tau(   2) = (   0.0000000   0.0000000   0.0000000  )
         3           O   tau(   3) = (   0.0000000   0.0000000   0.5000000  )
         4           O   tau(   4) = (   0.5000000   0.0000000   0.0000000  )
         5           O   tau(   5) = (   0.0000000   0.5000000   0.0000000  )

     number of k points=    10  Methfessel-Paxton smearing, width (Ry)=  0.0200
                       cart. coord. in units 2pi/alat
        k(    1) = (   0.0000000   0.0000000   0.0000000), wk =   0.0160000
        k(    2) = (   0.0000000   0.0000000   0.2000000), wk =   0.0960000
        k(    3) = (   0.0000000   0.0000000   0.4000000), wk =   0.0960000
        k(    4) = (   0.0000000   0.2000000   0.2000000), wk =   0.1920000
        k(    5) = (   0.0000000   0.2000000   0.4000000), wk =   0.3840000
        k(    6) = (   0.0000000   0.4000000   0.4000000), wk =   0.1920000
        k(    7) = (   0.2000000   0.2000000   0.2000000), wk =   0.1280000
        k(    8) = (   0.2000000   0.2000000   0.4000000), wk =   0.3840000
        k(    9) = (   0.2000000   0.4000000   0.4000000), wk =   0.3840000
        k(   10) = (   0.4000000   0.4000000   0.4000000), wk =   0.1280000

     Dense  grid:   136675 G-vectors     FFT dimensions: (  64,  64,  64)

     Smooth grid:    48489 G-vectors     FFT dimensions: (  45,  45,  45)

     Estimated max dynamical RAM per process >     294.24 MB

     Estimated total dynamical RAM >     588.48 MB

     Initial potential from superposition of free atoms

     starting charge      42.9822, renormalised to      43.0000
     Starting wfcs are   26 randomized atomic wfcs
     Checking if some PAW data can be deallocated... 

     total cpu time spent up to now is        5.4 secs

     Self-consistent Calculation

     iteration #  1     ecut=    70.00 Ry     beta= 0.70
     Davidson diagonalization with overlap
     ethr =  1.00E-02,  avg # of iterations =  2.3

     total cpu time spent up to now is       10.7 secs

     total energy              =   -1466.63308304 Ry
     estimated scf accuracy    <       1.78015916 Ry

     iteration #  2     ecut=    70.00 Ry     beta= 0.70
     Davidson diagonalization with overlap
     ethr =  4.14E-03,  avg # of iterations =  6.3

     total cpu time spent up to now is       17.3 secs

     total energy              =   -1467.09000437 Ry
     estimated scf accuracy    <       4.12662850 Ry

     iteration #  3     ecut=    70.00 Ry     beta= 0.70
     Davidson diagonalization with overlap
     ethr =  4.14E-03,  avg # of iterations =  2.1

     total cpu time spent up to now is       22.8 secs

     total energy              =   -1467.50357509 Ry
     estimated scf accuracy    <       0.41918569 Ry

     iteration #  4     ecut=    70.00 Ry     beta= 0.70
     Davidson diagonalization with overlap
     ethr =  9.75E-04,  avg # of iterations =  6.1

     total cpu time spent up to now is       29.0 secs

     total energy              =   -1467.75912022 Ry
     estimated scf accuracy    <       0.00632712 Ry

     iteration #  5     ecut=    70.00 Ry     beta= 0.70
     Davidson diagonalization with overlap
     c_bands:  1 eigenvalues not converged
     c_bands:  1 eigenvalues not converged
     c_bands:  1 eigenvalues not converged
     ethr =  1.47E-05,  avg # of iterations = 17.5

     total cpu time spent up to now is       38.7 secs

     total energy              =   -1467.76411893 Ry
     estimated scf accuracy    <       0.02038349 Ry

     iteration #  6     ecut=    70.00 Ry     beta= 0.70
     Davidson diagonalization with overlap
     ethr =  1.47E-05,  avg # of iterations =  3.5

     total cpu time spent up to now is       43.6 secs

     total energy              =   -1467.76260836 Ry
     estimated scf accuracy    <       0.01008483 Ry

     iteration #  7     ecut=    70.00 Ry     beta= 0.70
     Davidson diagonalization with overlap
     ethr =  1.47E-05,  avg # of iterations =  2.0

     total cpu time spent up to now is       48.9 secs

     total energy              =   -1467.76299537 Ry
     estimated scf accuracy    <       0.00276766 Ry

     iteration #  8     ecut=    70.00 Ry     beta= 0.70
     Davidson diagonalization with overlap
     c_bands:  1 eigenvalues not converged
     ethr =  6.44E-06,  avg # of iterations =  7.1

     total cpu time spent up to now is       54.9 secs

     total energy              =   -1467.76304894 Ry
     estimated scf accuracy    <       0.00109111 Ry

     iteration #  9     ecut=    70.00 Ry     beta= 0.70
     Davidson diagonalization with overlap
     ethr =  2.54E-06,  avg # of iterations =  7.9

     total cpu time spent up to now is       60.8 secs

     total energy              =   -1467.76324662 Ry
     estimated scf accuracy    <       0.00020944 Ry

     iteration # 10     ecut=    70.00 Ry     beta= 0.70
     Davidson diagonalization with overlap
     ethr =  4.87E-07,  avg # of iterations =  4.6

     total cpu time spent up to now is       66.3 secs

     total energy              =   -1467.76324653 Ry
     estimated scf accuracy    <       0.00015202 Ry

     iteration # 11     ecut=    70.00 Ry     beta= 0.70
     Davidson diagonalization with overlap
     ethr =  3.54E-07,  avg # of iterations =  2.2

     total cpu time spent up to now is       71.1 secs

     total energy              =   -1467.76324401 Ry
     estimated scf accuracy    <       0.00007104 Ry

     iteration # 12     ecut=    70.00 Ry     beta= 0.70
     Davidson diagonalization with overlap
     ethr =  1.65E-07,  avg # of iterations =  3.2

     total cpu time spent up to now is       76.5 secs

     total energy              =   -1467.76324888 Ry
     estimated scf accuracy    <       0.00001605 Ry

     iteration # 13     ecut=    70.00 Ry     beta= 0.70
     Davidson diagonalization with overlap
     ethr =  3.73E-08,  avg # of iterations =  4.9

     total cpu time spent up to now is       82.5 secs

     total energy              =   -1467.76325500 Ry
     estimated scf accuracy    <       0.00000011 Ry

     iteration # 14     ecut=    70.00 Ry     beta= 0.70
     Davidson diagonalization with overlap
     ethr =  2.61E-10,  avg # of iterations =  9.0

     total cpu time spent up to now is       90.6 secs

     total energy              =   -1467.76325545 Ry
     estimated scf accuracy    <       0.00000088 Ry

     iteration # 15     ecut=    70.00 Ry     beta= 0.70
     Davidson diagonalization with overlap
     ethr =  2.61E-10,  avg # of iterations =  5.0

     total cpu time spent up to now is       97.2 secs

     End of self-consistent calculation

          k = 0.0000 0.0000 0.0000 (  6031 PWs)   bands (ev):

   -17.9628 -13.7362 -13.7362 -13.4304 -13.4304 -13.4304  -9.1719  -7.0712
    -7.0712  -3.0576  -3.0576  -3.0576   2.3499   3.6810   3.6810   3.6810
     7.2150   7.2150   7.2150   7.3993   7.3993   7.3993  12.4473  12.4474
    13.2905  14.2939

          k = 0.0000 0.0000 0.2000 (  6055 PWs)   bands (ev):

   -17.9564 -13.7359 -13.6909 -13.4327 -13.4327 -13.4303  -9.0784  -7.3410
    -7.0676  -3.0365  -3.0365  -3.0252   1.2753   3.6933   3.6933   5.1534
     7.0402   7.1338   7.1338   7.3262   7.3262   7.4864  12.8754  12.8837
    13.9367  14.5772

          k = 0.0000 0.0000 0.4000 (  6030 PWs)   bands (ev):

   -17.9459 -13.7355 -13.6160 -13.4364 -13.4364 -13.4302  -8.8136  -7.8858
    -7.0618  -3.0020  -3.0020  -2.9858   0.5168   3.7079   3.7079   5.9543
     6.7914   7.0579   7.0579   7.1743   7.1743   8.6607  13.4204  13.5966
    14.5485  14.9736

          k = 0.0000 0.2000 0.2000 (  6030 PWs)   bands (ev):

   -17.9504 -13.7136 -13.6667 -13.4348 -13.4326 -13.4326  -8.9829  -7.4397
    -7.2110  -3.0622  -3.0183  -2.9932   0.4949   3.7320   4.5763   5.4205
     6.7527   7.0440   7.2186   7.2364   7.5006   7.6149  13.1519  13.3663
    14.1769  14.6525

          k = 0.0000 0.2000 0.4000 (  6060 PWs)   bands (ev):

   -17.9406 -13.7060 -13.5972 -13.4382 -13.4363 -13.4324  -8.7096  -7.9039
    -7.2579  -3.0489  -3.0064  -2.9885  -0.2019   3.7930   4.9070   5.9073
     6.6397   6.9523   7.0541   7.1481   7.4792   8.8820  13.6372  13.9066
    14.5955  14.8036

          k = 0.0000 0.4000 0.4000 (  6046 PWs)   bands (ev):

   -17.9321 -13.6782 -13.5446 -13.4409 -13.4361 -13.4361  -8.4080  -7.9839
    -7.6685  -3.0922  -3.0687  -2.9664  -0.9033   3.9424   5.7721   6.3683
     6.6785   6.7957   6.8459   7.1879   7.8001   9.8048  13.7333  13.7973
    14.3370  14.3912

          k = 0.2000 0.2000 0.2000 (  6028 PWs)   bands (ev):

   -17.9447 -13.6665 -13.6665 -13.4349 -13.4349 -13.4344  -8.8893  -7.4293
    -7.4293  -3.0686  -3.0686  -2.9598  -0.1755   4.6107   4.6107   5.5722
     6.7462   6.7462   7.4375   7.4375   7.4523   7.7250  13.4750  13.4750
    14.1734  14.6513

          k = 0.2000 0.2000 0.4000 (  6059 PWs)   bands (ev):

   -17.9355 -13.6661 -13.5882 -13.4388 -13.4378 -13.4347  -8.6179  -7.9079
    -7.4125  -3.0791  -3.0749  -2.9882  -0.8479   4.6639   5.2187   5.9429
     6.5437   6.7667   7.2977   7.3254   7.5503   9.0356  13.4145  13.8889
    14.4180  14.5035

          k = 0.2000 0.4000 0.4000 (  6026 PWs)   bands (ev):

   -17.9273 -13.6281 -13.5445 -13.4415 -13.4385 -13.4383  -8.3509  -7.9662
    -7.7411  -3.1341  -3.1252  -3.0377  -1.5471   5.0302   5.9679   6.3900
     6.5061   6.7277   7.2957   7.4287   7.8157   9.8952  13.0127  13.1129
    13.7012  14.6984

          k = 0.4000 0.4000 0.4000 (  6016 PWs)   bands (ev):

   -17.9195 -13.5443 -13.5443 -13.4425 -13.4425 -13.4420  -8.1865  -7.9372
    -7.9372  -3.2021  -3.2021  -3.1599  -2.3031   6.2761   6.4391   6.4391
     6.6746   6.6746   7.7560   7.7560   7.8684  10.4435  12.1587  12.1587
    12.6891  15.7077

     the Fermi energy is     8.9997 ev

!    total energy              =   -1467.76325563 Ry
     total all-electron energy =    -59784.855038 Ry
     estimated scf accuracy    <          4.7E-09 Ry
     smearing contrib. (-TS)   =      -0.00146731 Ry
     internal energy E=F+TS    =   -1467.76178832 Ry

     The total energy is F=E-TS. E is the sum of the following terms:
     one-electron contribution =     -88.48364339 Ry
     hartree contribution      =      74.98100072 Ry
     xc contribution           =     -75.16142273 Ry
     ewald contribution        =    -218.79726866 Ry
     one-center paw contrib.   =   -1160.30045427 Ry

     convergence has been achieved in  15 iterations

     Forces acting on atoms (cartesian axes, Ry/au):

     atom    1 type  1   force =     0.00000000    0.00000000    0.00000000
     atom    2 type  2   force =     0.00000000    0.00000000    0.00000000
     atom    3 type  3   force =     0.00000000    0.00000000    0.00000000
     atom    4 type  3   force =     0.00000000    0.00000000    0.00000000
     atom    5 type  3   force =     0.00000000    0.00000000    0.00000000

     Total force =     0.000000     Total SCF correction =     0.000000


     Computing stress (Cartesian axis) and pressure

          total   stress  (Ry/bohr**3)                   (kbar)     P=      -42.46
  -0.00028862   0.00000000   0.00000000          -42.46        0.00        0.00
   0.00000000  -0.00028862   0.00000000            0.00      -42.46        0.00
   0.00000000   0.00000000  -0.00028862            0.00        0.00      -42.46


     init_run     :      3.75s CPU      4.37s WALL (       1 calls)
     electrons    :     78.28s CPU     91.79s WALL (       1 calls)
     forces       :      1.19s CPU      1.54s WALL (       1 calls)
     stress       :      7.36s CPU      8.51s WALL (       1 calls)

     Called by init_run:
     wfcinit      :      0.99s CPU      1.14s WALL (       1 calls)
     potinit      :      0.81s CPU      0.90s WALL (       1 calls)
     hinit0       :      1.39s CPU      1.49s WALL (       1 calls)

     Called by electrons:
     c_bands      :     46.13s CPU     50.46s WALL (      15 calls)
     sum_band     :     15.10s CPU     19.97s WALL (      15 calls)
     v_of_rho     :      1.90s CPU      2.11s WALL (      16 calls)
     newd         :      7.38s CPU     10.91s WALL (      16 calls)
     PAW_pot      :      8.29s CPU      9.04s WALL (      16 calls)
     mix_rho      :      0.32s CPU      0.35s WALL (      15 calls)

     Called by c_bands:
     init_us_2    :      0.86s CPU      0.93s WALL (     330 calls)
     init_us_2:cp :      0.86s CPU      0.93s WALL (     330 calls)
     cegterg      :     44.18s CPU     48.39s WALL (     150 calls)

     Called by *egterg:
     cdiaghg      :      1.24s CPU      1.31s WALL (     987 calls)
     h_psi        :     34.66s CPU     38.28s WALL (     997 calls)
     s_psi        :      1.59s CPU      1.69s WALL (     997 calls)
     g_psi        :      0.20s CPU      0.20s WALL (     837 calls)

     Called by h_psi:
     h_psi:calbec :      2.04s CPU      2.22s WALL (     997 calls)
     vloc_psi     :     30.70s CPU     34.00s WALL (     997 calls)
     add_vuspsi   :      1.73s CPU      1.87s WALL (     997 calls)

     General routines
     calbec       :      2.71s CPU      3.00s WALL (    1197 calls)
     fft          :      1.44s CPU      1.71s WALL (     231 calls)
     ffts         :      0.15s CPU      0.16s WALL (      31 calls)
     fftw         :     32.43s CPU     35.98s WALL (   27336 calls)
     interpolate  :      0.22s CPU      0.26s WALL (      16 calls)

     Parallel routines

     PWSCF        :   1m31.52s CPU   1m47.24s WALL


   This run was terminated on:   3: 7:45   6May2024            

=------------------------------------------------------------------------------=
   JOB DONE.
=------------------------------------------------------------------------------=
