
     Program PWSCF v.7.1 starts on  6May2024 at  6:19:18 

     This program is part of the open-source Quantum ESPRESSO suite
     for quantum simulation of materials; please cite
         "P. Giannozzi et al., J. Phys.:Condens. Matter 21 395502 (2009);
         "P. Giannozzi et al., J. Phys.:Condens. Matter 29 465901 (2017);
         "P. Giannozzi et al., J. Chem. Phys. 152 154105 (2020);
          URL http://www.quantum-espresso.org", 
     in publications or presentations arising from this work. More details at
     http://www.quantum-espresso.org/quote

     Parallel version (MPI), running on     2 processors

     MPI processes distributed on     1 nodes
     13492 MiB available memory on the printing compute node when the environment starts

     Waiting for input...
     Reading input from standard input
Warning: card &CELL ignored
Warning: card / ignored

     Current dimensions of program PWSCF are:
     Max number of different atomic species (ntypx) = 10
     Max number of k-points (npk) =  40000
     Max angular momentum in pseudopotentials (lmaxx) =  4
     file Ba.pbe-spn-kjpaw_psl.1.0.0.UPF: wavefunction(s)  5S 6S renormalized
     Message from routine setup:
     using ibrav=0 with symmetry is DISCOURAGED, use correct ibrav instead

     R & G space division:  proc/nbgrp/npool/nimage =       2
     Subspace diagonalization in iterative solution of the eigenvalue problem:
     a serial algorithm will be used


     Parallelization info
     --------------------
     sticks:   dense  smooth     PW     G-vecs:    dense   smooth      PW
     Min        1398     699    199                46716    16534    2508
     Max        1399     700    200                46719    16535    2509
     Sum        2797    1399    399                93435    33069    5017

     Using Slab Decomposition



     bravais-lattice index     =            0
     lattice parameter (alat)  =       8.1500  a.u.
     unit-cell volume          =     416.7299 (a.u.)^3
     number of atoms/cell      =            1
     number of atomic types    =            1
     number of electrons       =        10.00
     number of Kohn-Sham states=            9
     kinetic-energy cutoff     =      70.0000  Ry
     charge density cutoff     =     560.0000  Ry
     scf convergence threshold =      1.0E-07
     mixing beta               =       0.7000
     number of iterations used =            8  plain     mixing
     energy convergence thresh.=      1.0E-04
     force convergence thresh. =      1.0E-03
     Exchange-correlation= SLA  PW   PBX  PBC
                           (   1   4   3   4   0   0   0)
     nstep                     =           50


     celldm(1)=   8.150023  celldm(2)=   0.000000  celldm(3)=   0.000000
     celldm(4)=   0.000000  celldm(5)=   0.000000  celldm(6)=   0.000000

     crystal axes: (cart. coord. in units of alat)
               a(1) = (  -0.577350   0.577350   0.577350 )  
               a(2) = (   0.577350  -0.577350   0.577350 )  
               a(3) = (   0.577350   0.577350  -0.577350 )  

     reciprocal axes: (cart. coord. in units 2 pi/alat)
               b(1) = (  0.000000  0.866025  0.866025 )  
               b(2) = (  0.866025  0.000000  0.866025 )  
               b(3) = (  0.866025  0.866025  0.000000 )  


     PseudoPot. # 1 for Ba read from file:
     /home/bond/Software/qe-7.1/pseudo/Ba.pbe-spn-kjpaw_psl.1.0.0.UPF
     MD5 check sum: 7cfe25f1fe7574a4710541d5a11d6531
     Pseudo is Projector augmented-wave + core cor, Zval = 10.0
     Generated using &quot;atomic&quot; code by A. Dal Corso  v.6.2.2
     Shape of augmentation charge: PSQ
     Using radial grid of 1251 points,  7 beta functions with: 
                l(1) =   0
                l(2) =   0
                l(3) =   0
                l(4) =   1
                l(5) =   1
                l(6) =   2
                l(7) =   2
     Q(r) pseudized with 0 coefficients 


     atomic species   valence    mass     pseudopotential
        Ba            10.00   137.32700     Ba( 1.00)

     48 Sym. Ops., with inversion, found



   Cartesian axes

     site n.     atom                  positions (alat units)
         1           Ba  tau(   1) = (   0.0000000   0.0000000   0.0000000  )

     number of k points=    10  Methfessel-Paxton smearing, width (Ry)=  0.0200
                       cart. coord. in units 2pi/alat
        k(    1) = (   0.0000000   0.0000000   0.0000000), wk =   0.0160000
        k(    2) = (   0.1732051   0.1732051   0.0000000), wk =   0.1920000
        k(    3) = (   0.3464102   0.3464102   0.0000000), wk =   0.1920000
        k(    4) = (   0.3464102   0.1732051   0.1732051), wk =   0.3840000
        k(    5) = (   0.5196152   0.3464102   0.1732051), wk =   0.3840000
        k(    6) = (   0.3464102   0.3464102   0.3464102), wk =   0.1280000
        k(    7) = (   0.0000000   0.0000000   0.3464102), wk =   0.0960000
        k(    8) = (   0.0000000  -0.1732051   0.5196152), wk =   0.3840000
        k(    9) = (  -0.6928203  -0.1732051  -0.1732051), wk =   0.1280000
        k(   10) = (   0.0000000   0.0000000   0.6928203), wk =   0.0960000

     Dense  grid:    93435 G-vectors     FFT dimensions: (  64,  64,  64)

     Smooth grid:    33069 G-vectors     FFT dimensions: (  45,  45,  45)

     Estimated max dynamical RAM per process >     191.27 MB

     Estimated total dynamical RAM >     382.54 MB

     Initial potential from superposition of free atoms

     starting charge       9.9830, renormalised to      10.0000
     Starting wfcs are    5 randomized atomic wfcs +    4 random wfcs
     Checking if some PAW data can be deallocated... 

     total cpu time spent up to now is        2.4 secs

     Self-consistent Calculation

     iteration #  1     ecut=    70.00 Ry     beta= 0.70
     Davidson diagonalization with overlap
     ethr =  1.00E-02,  avg # of iterations =  8.4

     Threshold (ethr) on eigenvalues was too large:
     Diagonalizing with lowered threshold

     Davidson diagonalization with overlap
     ethr =  8.49E-06,  avg # of iterations =  8.1

     total cpu time spent up to now is        6.4 secs

     total energy              =    -436.18148908 Ry
     estimated scf accuracy    <       0.00086656 Ry

     iteration #  2     ecut=    70.00 Ry     beta= 0.70
     Davidson diagonalization with overlap
     ethr =  8.67E-06,  avg # of iterations =  1.1

     total cpu time spent up to now is        7.9 secs

     total energy              =    -436.18159995 Ry
     estimated scf accuracy    <       0.00009577 Ry

     iteration #  3     ecut=    70.00 Ry     beta= 0.70
     Davidson diagonalization with overlap
     ethr =  9.58E-07,  avg # of iterations =  2.7

     total cpu time spent up to now is        9.4 secs

     total energy              =    -436.18161199 Ry
     estimated scf accuracy    <       0.00000357 Ry

     iteration #  4     ecut=    70.00 Ry     beta= 0.70
     Davidson diagonalization with overlap
     ethr =  3.57E-08,  avg # of iterations =  4.0

     total cpu time spent up to now is       11.2 secs

     total energy              =    -436.18161341 Ry
     estimated scf accuracy    <       0.00000096 Ry

     iteration #  5     ecut=    70.00 Ry     beta= 0.70
     Davidson diagonalization with overlap
     ethr =  9.63E-09,  avg # of iterations =  2.2

     total cpu time spent up to now is       13.0 secs

     total energy              =    -436.18161357 Ry
     estimated scf accuracy    <       0.00000016 Ry

     iteration #  6     ecut=    70.00 Ry     beta= 0.70
     Davidson diagonalization with overlap
     ethr =  1.56E-09,  avg # of iterations =  2.0

     total cpu time spent up to now is       14.7 secs

     End of self-consistent calculation

          k = 0.0000 0.0000 0.0000 (  4093 PWs)   bands (ev):

   -22.8493  -7.7834  -7.7834  -7.7834   3.2513   7.8632   7.8632   7.8632
     9.2881

          k = 0.1732 0.1732 0.0000 (  4130 PWs)   bands (ev):

   -22.8331  -7.9614  -7.8386  -7.7846   3.9530   7.3625   7.3898   8.6190
     8.9542

          k = 0.3464 0.3464 0.0000 (  4124 PWs)   bands (ev):

   -22.8066  -8.2292  -7.9256  -7.7867   5.0124   6.7820   7.0860   9.3011
     9.6752

          k = 0.3464 0.1732 0.1732 (  4101 PWs)   bands (ev):

   -22.8117  -8.1398  -7.9170  -7.8226   5.0149   6.6991   6.9896   8.8819
     9.7745

          k = 0.5196 0.3464 0.1732 (  4119 PWs)   bands (ev):

   -22.7985  -8.2136  -8.0103  -7.8335   5.6353   6.6447   6.8789   9.1325
     9.8770

          k = 0.3464 0.3464 0.3464 (  4126 PWs)   bands (ev):

   -22.8011  -8.1520  -7.9491  -7.9491   6.2093   6.4967   6.4967   9.8453
    10.6864

          k = 0.0000 0.0000 0.3464 (  4121 PWs)   bands (ev):

   -22.8183  -7.9876  -7.8971  -7.8971   4.5789   7.2839   7.7519   7.7519
     8.5938

          k = 0.0000-0.1732 0.5196 (  4117 PWs)   bands (ev):

   -22.7942  -8.1850  -7.9890  -7.9097   5.5717   6.4174   7.5028   8.1391
     9.8736

          k =-0.6928-0.1732-0.1732 (  4142 PWs)   bands (ev):

   -22.7834  -8.1370  -8.1370  -7.9340   6.0475   6.0475   7.0578   9.4437
     9.4437

          k = 0.0000 0.0000 0.6928 (  4116 PWs)   bands (ev):

   -22.7741  -8.1215  -8.0885  -8.0885   5.6485   5.6491   9.1224   9.1224
     9.6158

     the Fermi energy is     6.0732 ev

!    total energy              =    -436.18161358 Ry
     total all-electron energy =    -16271.274729 Ry
     estimated scf accuracy    <          5.2E-09 Ry
     smearing contrib. (-TS)   =       0.00078395 Ry
     internal energy E=F+TS    =    -436.18239753 Ry

     The total energy is F=E-TS. E is the sum of the following terms:
     one-electron contribution =     -10.94197090 Ry
     hartree contribution      =       8.54570415 Ry
     xc contribution           =     -20.16669315 Ry
     ewald contribution        =     -38.67067082 Ry
     one-center paw contrib.   =    -374.94876681 Ry

     convergence has been achieved in   6 iterations

     Forces acting on atoms (cartesian axes, Ry/au):

     atom    1 type  1   force =     0.00000000    0.00000000    0.00000000

     Total force =     0.000000     Total SCF correction =     0.000000


     Computing stress (Cartesian axis) and pressure

          total   stress  (Ry/bohr**3)                   (kbar)     P=        0.82
   0.00000558   0.00000000   0.00000000            0.82        0.00        0.00
   0.00000000   0.00000558  -0.00000000            0.00        0.82       -0.00
  -0.00000000  -0.00000000   0.00000558           -0.00       -0.00        0.82


     BFGS Geometry Optimization
     Energy error            =      0.0E+00 Ry
     Gradient error          =      0.0E+00 Ry/Bohr

     bfgs converged in   1 scf cycles and   0 bfgs steps
     (criteria: energy <  1.0E-04 Ry, force <  1.0E-03 Ry/Bohr)

     End of BFGS Geometry Optimization

     Final energy             =    -436.1816135824 Ry
Begin final coordinates

ATOMIC_POSITIONS (angstrom)
Ba            0.0000000000        0.0000000000        0.0000000000
End final coordinates



     init_run     :      1.72s CPU      1.91s WALL (       1 calls)
     electrons    :     10.88s CPU     12.35s WALL (       1 calls)
     forces       :      0.49s CPU      0.65s WALL (       1 calls)
     stress       :      2.68s CPU      3.01s WALL (       1 calls)

     Called by init_run:
     wfcinit      :      0.29s CPU      0.31s WALL (       1 calls)
     potinit      :      0.39s CPU      0.42s WALL (       1 calls)
     hinit0       :      0.75s CPU      0.83s WALL (       1 calls)

     Called by electrons:
     c_bands      :      5.65s CPU      5.92s WALL (       7 calls)
     sum_band     :      2.43s CPU      3.12s WALL (       7 calls)
     v_of_rho     :      0.72s CPU      0.78s WALL (       7 calls)
     newd         :      1.27s CPU      1.71s WALL (       7 calls)
     PAW_pot      :      1.13s CPU      1.19s WALL (       7 calls)
     mix_rho      :      0.07s CPU      0.07s WALL (       7 calls)

     Called by c_bands:
     init_us_2    :      0.18s CPU      0.19s WALL (     170 calls)
     init_us_2:cp :      0.18s CPU      0.19s WALL (     170 calls)
     cegterg      :      5.38s CPU      5.62s WALL (      70 calls)

     Called by *egterg:
     cdiaghg      :      0.08s CPU      0.08s WALL (     345 calls)
     h_psi        :      4.97s CPU      5.20s WALL (     365 calls)
     s_psi        :      0.09s CPU      0.09s WALL (     365 calls)
     g_psi        :      0.02s CPU      0.02s WALL (     285 calls)

     Called by h_psi:
     h_psi:calbec :      0.13s CPU      0.13s WALL (     365 calls)
     vloc_psi     :      4.71s CPU      4.94s WALL (     365 calls)
     add_vuspsi   :      0.11s CPU      0.11s WALL (     365 calls)

     General routines
     calbec       :      0.17s CPU      0.18s WALL (     485 calls)
     fft          :      0.72s CPU      0.78s WALL (     115 calls)
     ffts         :      0.11s CPU      0.12s WALL (      14 calls)
     fftw         :      4.95s CPU      5.19s WALL (    4502 calls)
     interpolate  :      0.14s CPU      0.14s WALL (       7 calls)

     Parallel routines

     PWSCF        :     16.18s CPU     18.39s WALL


   This run was terminated on:   6:19:36   6May2024            

=------------------------------------------------------------------------------=
   JOB DONE.
=------------------------------------------------------------------------------=
