
     Program PWSCF v.7.1 starts on  6May2024 at 19: 2: 7 

     This program is part of the open-source Quantum ESPRESSO suite
     for quantum simulation of materials; please cite
         "P. Giannozzi et al., J. Phys.:Condens. Matter 21 395502 (2009);
         "P. Giannozzi et al., J. Phys.:Condens. Matter 29 465901 (2017);
         "P. Giannozzi et al., J. Chem. Phys. 152 154105 (2020);
          URL http://www.quantum-espresso.org", 
     in publications or presentations arising from this work. More details at
     http://www.quantum-espresso.org/quote

     Parallel version (MPI), running on     2 processors

     MPI processes distributed on     1 nodes
     13664 MiB available memory on the printing compute node when the environment starts

     Waiting for input...
     Reading input from standard input
Warning: card &CELL ignored
Warning: card / ignored

     Current dimensions of program PWSCF are:
     Max number of different atomic species (ntypx) = 10
     Max number of k-points (npk) =  40000
     Max angular momentum in pseudopotentials (lmaxx) =  4
     file Ba.pbe-spn-kjpaw_psl.1.0.0.UPF: wavefunction(s)  5S 6S renormalized
     file Bi.pbe-dn-kjpaw_psl.1.0.0.UPF: wavefunction(s)  6P 5D renormalized
     file F.pbe-n-kjpaw_psl.1.0.0.UPF: wavefunction(s)  2S 2P renormalized
     file O.pbe-n-kjpaw_psl.1.0.0.UPF: wavefunction(s)  2S 2P renormalized
     Message from routine setup:
     using ibrav=0 with symmetry is DISCOURAGED, use correct ibrav instead

     R & G space division:  proc/nbgrp/npool/nimage =       2
     Subspace diagonalization in iterative solution of the eigenvalue problem:
     a serial algorithm will be used


     Parallelization info
     --------------------
     sticks:   dense  smooth     PW     G-vecs:    dense   smooth      PW
     Min        1694     846    240                74046    26149    3904
     Max        1695     847    241                74047    26150    3905
     Sum        3389    1693    481               148093    52299    7809

     Using Slab Decomposition



     bravais-lattice index     =            0
     lattice parameter (alat)  =       8.7116  a.u.
     unit-cell volume          =     661.1490 (a.u.)^3
     number of atoms/cell      =            5
     number of atomic types    =            4
     number of electrons       =        44.00
     number of Kohn-Sham states=           22
     kinetic-energy cutoff     =      70.0000  Ry
     charge density cutoff     =     560.0000  Ry
     scf convergence threshold =      1.0E-07
     mixing beta               =       0.7000
     number of iterations used =            8  plain     mixing
     energy convergence thresh.=      1.0E-04
     force convergence thresh. =      1.0E-03
     Exchange-correlation= SLA  PW   PBX  PBC
                           (   1   4   3   4   0   0   0)
     nstep                     =           50


     celldm(1)=   8.711637  celldm(2)=   0.000000  celldm(3)=   0.000000
     celldm(4)=   0.000000  celldm(5)=   0.000000  celldm(6)=   0.000000

     crystal axes: (cart. coord. in units of alat)
               a(1) = (   1.000000   0.000000   0.000000 )  
               a(2) = (   0.000000   1.000000   0.000000 )  
               a(3) = (   0.000000   0.000000   1.000000 )  

     reciprocal axes: (cart. coord. in units 2 pi/alat)
               b(1) = (  1.000000  0.000000  0.000000 )  
               b(2) = (  0.000000  1.000000  0.000000 )  
               b(3) = (  0.000000  0.000000  1.000000 )  


     PseudoPot. # 1 for Ba read from file:
     /home/bond/Software/qe-7.1/pseudo/Ba.pbe-spn-kjpaw_psl.1.0.0.UPF
     MD5 check sum: 7cfe25f1fe7574a4710541d5a11d6531
     Pseudo is Projector augmented-wave + core cor, Zval = 10.0
     Generated using &quot;atomic&quot; code by A. Dal Corso  v.6.2.2
     Shape of augmentation charge: PSQ
     Using radial grid of 1251 points,  7 beta functions with: 
                l(1) =   0
                l(2) =   0
                l(3) =   0
                l(4) =   1
                l(5) =   1
                l(6) =   2
                l(7) =   2
     Q(r) pseudized with 0 coefficients 


     PseudoPot. # 2 for Bi read from file:
     /home/bond/Software/qe-7.1/pseudo/Bi.pbe-dn-kjpaw_psl.1.0.0.UPF
     MD5 check sum: 266ded784ae3bc462508ed03f0f37963
     Pseudo is Projector augmented-wave + core cor, Zval = 15.0
     Generated using &quot;atomic&quot; code by A. Dal Corso  v.6.2.2
     Shape of augmentation charge: PSQ
     Using radial grid of 1283 points,  6 beta functions with: 
                l(1) =   0
                l(2) =   0
                l(3) =   1
                l(4) =   1
                l(5) =   2
                l(6) =   2
     Q(r) pseudized with 0 coefficients 


     PseudoPot. # 3 for F  read from file:
     /home/bond/Software/qe-7.1/pseudo/F.pbe-n-kjpaw_psl.1.0.0.UPF
     MD5 check sum: 66d718ea72839a4268ab2a9540e8cdd4
     Pseudo is Projector augmented-wave + core cor, Zval =  7.0
     Generated using &quot;atomic&quot; code by A. Dal Corso  v.6.3
     Shape of augmentation charge: PSQ
     Using radial grid of 1105 points,  4 beta functions with: 
                l(1) =   0
                l(2) =   0
                l(3) =   1
                l(4) =   1
     Q(r) pseudized with 0 coefficients 


     PseudoPot. # 4 for O  read from file:
     /home/bond/Software/qe-7.1/pseudo/O.pbe-n-kjpaw_psl.1.0.0.UPF
     MD5 check sum: e99d9cef9b487d1ca56f5b95ecd0fd7a
     Pseudo is Projector augmented-wave + core cor, Zval =  6.0
     Generated using &quot;atomic&quot; code by A. Dal Corso  v.6.3
     Shape of augmentation charge: PSQ
     Using radial grid of 1095 points,  4 beta functions with: 
                l(1) =   0
                l(2) =   0
                l(3) =   1
                l(4) =   1
     Q(r) pseudized with 0 coefficients 


     atomic species   valence    mass     pseudopotential
        Ba            10.00   137.32700     Ba( 1.00)
        Bi            15.00   208.98040     Bi( 1.00)
        F              7.00    18.99840     F ( 1.00)
        O              6.00    15.99900     O ( 1.00)

      4 Sym. Ops. (no inversion) found



   Cartesian axes

     site n.     atom                  positions (alat units)
         1           Ba  tau(   1) = (   0.5000000   0.5000000   0.5000000  )
         2           Bi  tau(   2) = (   0.0000000   0.0000000   0.0000000  )
         3           O   tau(   3) = (   0.0000000   0.0000000   0.5000000  )
         4           O   tau(   4) = (   0.5000000   0.0000000   0.0000000  )
         5           F   tau(   5) = (   0.0216920   0.5000000   0.0000000  )

     number of k points=    27
                       cart. coord. in units 2pi/alat
        k(    1) = (   0.0000000   0.0000000   0.0000000), wk =   0.0160000
        k(    2) = (   0.0000000   0.0000000   0.2000000), wk =   0.0320000
        k(    3) = (   0.0000000   0.0000000   0.4000000), wk =   0.0320000
        k(    4) = (   0.0000000   0.2000000   0.2000000), wk =   0.0640000
        k(    5) = (   0.0000000   0.2000000   0.4000000), wk =   0.0640000
        k(    6) = (   0.0000000   0.4000000   0.4000000), wk =   0.0640000
        k(    7) = (   0.2000000   0.2000000   0.2000000), wk =   0.1280000
        k(    8) = (   0.2000000   0.2000000   0.4000000), wk =   0.1280000
        k(    9) = (   0.2000000   0.4000000   0.4000000), wk =   0.1280000
        k(   10) = (   0.4000000   0.4000000   0.4000000), wk =   0.1280000
        k(   11) = (   0.2000000   0.0000000   0.0000000), wk =   0.0320000
        k(   12) = (   0.0000000   0.2000000   0.0000000), wk =   0.0320000
        k(   13) = (   0.4000000   0.0000000   0.0000000), wk =   0.0320000
        k(   14) = (   0.0000000   0.4000000   0.0000000), wk =   0.0320000
        k(   15) = (   0.2000000   0.0000000  -0.2000000), wk =   0.0640000
        k(   16) = (   0.2000000  -0.2000000   0.0000000), wk =   0.0640000
        k(   17) = (   0.2000000   0.0000000  -0.4000000), wk =   0.0640000
        k(   18) = (   0.4000000  -0.2000000   0.0000000), wk =   0.0640000
        k(   19) = (   0.0000000   0.4000000   0.2000000), wk =   0.0640000
        k(   20) = (   0.2000000   0.4000000   0.0000000), wk =   0.0640000
        k(   21) = (   0.4000000   0.0000000   0.2000000), wk =   0.0640000
        k(   22) = (   0.4000000   0.0000000  -0.4000000), wk =   0.0640000
        k(   23) = (   0.4000000  -0.4000000   0.0000000), wk =   0.0640000
        k(   24) = (   0.4000000  -0.2000000   0.2000000), wk =   0.1280000
        k(   25) = (  -0.2000000   0.4000000   0.2000000), wk =   0.1280000
        k(   26) = (   0.4000000   0.2000000  -0.4000000), wk =   0.1280000
        k(   27) = (   0.4000000  -0.4000000   0.2000000), wk =   0.1280000

     Dense  grid:   148093 G-vectors     FFT dimensions: (  72,  72,  72)

     Smooth grid:    52299 G-vectors     FFT dimensions: (  48,  48,  48)

     Estimated max dynamical RAM per process >     342.48 MB

     Estimated total dynamical RAM >     684.97 MB

     Initial potential from superposition of free atoms

     starting charge      43.9822, renormalised to      44.0000
     Starting wfcs are   26 randomized atomic wfcs
     Checking if some PAW data can be deallocated... 

     total cpu time spent up to now is        8.2 secs

     Self-consistent Calculation

     iteration #  1     ecut=    70.00 Ry     beta= 0.70
     Davidson diagonalization with overlap
     ethr =  1.00E-02,  avg # of iterations =  1.0

     total cpu time spent up to now is       16.5 secs

     total energy              =   -1484.41100796 Ry
     estimated scf accuracy    <       1.82802306 Ry

     iteration #  2     ecut=    70.00 Ry     beta= 0.70
     Davidson diagonalization with overlap
     ethr =  4.15E-03,  avg # of iterations =  8.7

     total cpu time spent up to now is       30.6 secs

     total energy              =   -1484.23444138 Ry
     estimated scf accuracy    <       7.81777488 Ry

     iteration #  3     ecut=    70.00 Ry     beta= 0.70
     Davidson diagonalization with overlap
     ethr =  4.15E-03,  avg # of iterations =  6.8

     total cpu time spent up to now is       43.6 secs

     total energy              =   -1485.44415562 Ry
     estimated scf accuracy    <       0.13115669 Ry

     iteration #  4     ecut=    70.00 Ry     beta= 0.70
     Davidson diagonalization with overlap
     ethr =  2.98E-04,  avg # of iterations =  6.5

     total cpu time spent up to now is       54.8 secs

     total energy              =   -1485.54309087 Ry
     estimated scf accuracy    <       0.04049586 Ry

     iteration #  5     ecut=    70.00 Ry     beta= 0.70
     Davidson diagonalization with overlap
     ethr =  9.20E-05,  avg # of iterations =  2.8

     total cpu time spent up to now is       64.5 secs

     total energy              =   -1485.54285810 Ry
     estimated scf accuracy    <       0.00940932 Ry

     iteration #  6     ecut=    70.00 Ry     beta= 0.70
     Davidson diagonalization with overlap
     ethr =  2.14E-05,  avg # of iterations =  6.3

     total cpu time spent up to now is       76.2 secs

     total energy              =   -1485.54829029 Ry
     estimated scf accuracy    <       0.00679273 Ry

     iteration #  7     ecut=    70.00 Ry     beta= 0.70
     Davidson diagonalization with overlap
     ethr =  1.54E-05,  avg # of iterations =  2.0

     total cpu time spent up to now is       85.2 secs

     total energy              =   -1485.54730136 Ry
     estimated scf accuracy    <       0.00295643 Ry

     iteration #  8     ecut=    70.00 Ry     beta= 0.70
     Davidson diagonalization with overlap
     ethr =  6.72E-06,  avg # of iterations =  5.8

     total cpu time spent up to now is       97.3 secs

     total energy              =   -1485.54910742 Ry
     estimated scf accuracy    <       0.00251855 Ry

     iteration #  9     ecut=    70.00 Ry     beta= 0.70
     Davidson diagonalization with overlap
     ethr =  5.72E-06,  avg # of iterations =  1.2

     total cpu time spent up to now is      106.1 secs

     total energy              =   -1485.54848838 Ry
     estimated scf accuracy    <       0.00207121 Ry

     iteration # 10     ecut=    70.00 Ry     beta= 0.70
     Davidson diagonalization with overlap
     ethr =  4.71E-06,  avg # of iterations =  2.8

     total cpu time spent up to now is      115.8 secs

     total energy              =   -1485.54828050 Ry
     estimated scf accuracy    <       0.00061073 Ry

     iteration # 11     ecut=    70.00 Ry     beta= 0.70
     Davidson diagonalization with overlap
     ethr =  1.39E-06,  avg # of iterations =  7.4

     total cpu time spent up to now is      128.1 secs

     total energy              =   -1485.54882720 Ry
     estimated scf accuracy    <       0.00158100 Ry

     iteration # 12     ecut=    70.00 Ry     beta= 0.70
     Davidson diagonalization with overlap
     ethr =  1.39E-06,  avg # of iterations =  1.4

     total cpu time spent up to now is      136.7 secs

     total energy              =   -1485.54907948 Ry
     estimated scf accuracy    <       0.00107135 Ry

     iteration # 13     ecut=    70.00 Ry     beta= 0.70
     Davidson diagonalization with overlap
     ethr =  1.39E-06,  avg # of iterations =  1.0

     total cpu time spent up to now is      145.5 secs

     total energy              =   -1485.54827601 Ry
     estimated scf accuracy    <       0.00147402 Ry

     iteration # 14     ecut=    70.00 Ry     beta= 0.70
     Davidson diagonalization with overlap
     ethr =  1.39E-06,  avg # of iterations =  6.6

     total cpu time spent up to now is      158.4 secs

     total energy              =   -1485.54871443 Ry
     estimated scf accuracy    <       0.00065881 Ry

     iteration # 15     ecut=    70.00 Ry     beta= 0.70
     Davidson diagonalization with overlap
     ethr =  1.39E-06,  avg # of iterations =  2.0

     total cpu time spent up to now is      168.2 secs

     total energy              =   -1485.54869499 Ry
     estimated scf accuracy    <       0.00027792 Ry

     iteration # 16     ecut=    70.00 Ry     beta= 0.70
     Davidson diagonalization with overlap
     ethr =  6.32E-07,  avg # of iterations =  5.9

     total cpu time spent up to now is      179.5 secs

     total energy              =   -1485.54877961 Ry
     estimated scf accuracy    <       0.00000775 Ry

     iteration # 17     ecut=    70.00 Ry     beta= 0.70
     Davidson diagonalization with overlap
     ethr =  1.76E-08,  avg # of iterations =  5.5

     total cpu time spent up to now is      191.6 secs

     total energy              =   -1485.54878861 Ry
     estimated scf accuracy    <       0.00000519 Ry

     iteration # 18     ecut=    70.00 Ry     beta= 0.70
     Davidson diagonalization with overlap
     ethr =  1.18E-08,  avg # of iterations = 11.1

     total cpu time spent up to now is      209.2 secs

     total energy              =   -1485.54878656 Ry
     estimated scf accuracy    <       0.00026686 Ry

     iteration # 19     ecut=    70.00 Ry     beta= 0.70
     Davidson diagonalization with overlap
     ethr =  1.18E-08,  avg # of iterations =  8.6

     total cpu time spent up to now is      223.1 secs

     total energy              =   -1485.54876423 Ry
     estimated scf accuracy    <       0.00007477 Ry

     iteration # 20     ecut=    70.00 Ry     beta= 0.70
     Davidson diagonalization with overlap
     ethr =  1.18E-08,  avg # of iterations =  9.3

     total cpu time spent up to now is      238.8 secs

     total energy              =   -1485.54878242 Ry
     estimated scf accuracy    <       0.00000765 Ry

     iteration # 21     ecut=    70.00 Ry     beta= 0.70
     Davidson diagonalization with overlap
     ethr =  1.18E-08,  avg # of iterations =  2.7

     total cpu time spent up to now is      248.6 secs

     total energy              =   -1485.54878395 Ry
     estimated scf accuracy    <       0.00000271 Ry

     iteration # 22     ecut=    70.00 Ry     beta= 0.70
     Davidson diagonalization with overlap
     ethr =  6.16E-09,  avg # of iterations =  2.0

     total cpu time spent up to now is      257.1 secs

     total energy              =   -1485.54878512 Ry
     estimated scf accuracy    <       0.00000452 Ry

     iteration # 23     ecut=    70.00 Ry     beta= 0.70
     Davidson diagonalization with overlap
     ethr =  6.16E-09,  avg # of iterations =  3.0

     total cpu time spent up to now is      266.1 secs

     total energy              =   -1485.54878441 Ry
     estimated scf accuracy    <       0.00000813 Ry

     iteration # 24     ecut=    70.00 Ry     beta= 0.70
     Davidson diagonalization with overlap
     ethr =  6.16E-09,  avg # of iterations =  1.0

     total cpu time spent up to now is      274.5 secs

     total energy              =   -1485.54878182 Ry
     estimated scf accuracy    <       0.00000684 Ry

     iteration # 25     ecut=    70.00 Ry     beta= 0.70
     Davidson diagonalization with overlap
     ethr =  6.16E-09,  avg # of iterations =  6.1

     total cpu time spent up to now is      286.1 secs

     total energy              =   -1485.54878317 Ry
     estimated scf accuracy    <       0.00000014 Ry

     iteration # 26     ecut=    70.00 Ry     beta= 0.70
     Davidson diagonalization with overlap
     ethr =  3.09E-10,  avg # of iterations =  5.6

     total cpu time spent up to now is      297.7 secs

     End of self-consistent calculation

          k = 0.0000 0.0000 0.0000 (  6619 PWs)   bands (ev):

   -19.4203 -16.0985 -13.7839 -13.7795 -13.7794 -13.5854 -13.4973  -8.4371
    -7.2468  -4.5422  -4.5420  -4.3567   0.9785   1.1227   2.6579   2.6738
     4.3635   4.3643   6.5235   6.9251   7.1856   7.1887

          k = 0.0000 0.0000 0.2000 (  6527 PWs)   bands (ev):

   -19.4151 -16.1018 -13.7809 -13.7793 -13.7599 -13.5869 -13.4845  -8.3694
    -7.4105  -4.5350  -4.5271  -4.3431   0.2526   1.1234   2.6138   2.7820
     4.4218   5.3759   6.4990   6.8454   7.1121   7.1531

          k = 0.0000 0.0000 0.4000 (  6528 PWs)   bands (ev):

   -19.4067 -16.1074 -13.7836 -13.7792 -13.7259 -13.5895 -13.4576  -8.1505
    -7.7863  -4.5249  -4.5046  -4.3207  -0.4449   1.1235   2.5297   2.7454
     4.5230   6.2048   6.4010   6.7948   6.9884   8.1238

          k = 0.0000 0.2000 0.2000 (  6565 PWs)   bands (ev):

   -19.4116 -15.9920 -13.7828 -13.7825 -13.7605 -13.6235 -13.5868  -8.4367
    -7.4042  -4.5461  -4.5172  -4.3265  -0.5747   2.3731   2.7374   2.8595
     4.2802   5.2928   6.3430   6.7101   7.0113   7.1751

          k = 0.0000 0.2000 0.4000 (  6526 PWs)   bands (ev):

   -19.4035 -15.9976 -13.7852 -13.7824 -13.7325 -13.5925 -13.5893  -8.1831
    -7.7881  -4.5639  -4.4966  -4.3334  -1.1148   2.2564   2.6693   2.7605
     4.4019   6.2045   6.4899   6.6820   6.8628   8.1972

          k = 0.0000 0.4000 0.4000 (  6538 PWs)   bands (ev):

   -19.3984 -15.7858 -13.8890 -13.7879 -13.7802 -13.7077 -13.5891  -8.2343
    -7.7907  -4.6230  -4.4835  -4.3568  -1.6571   2.7773   2.8549   3.7882
     4.1907   6.1762   6.5246   6.5709   6.6751   8.4038

          k = 0.2000 0.2000 0.2000 (  6559 PWs)   bands (ev):

   -19.4072 -15.9937 -13.7838 -13.7828 -13.7326 -13.6153 -13.5884  -8.3684
    -7.5296  -4.5526  -4.5347  -4.3257  -1.0370   2.2115   2.7896   2.8875
     4.9297   5.6291   6.4312   6.6790   6.9890   7.2936

          k = 0.2000 0.2000 0.4000 (  6514 PWs)   bands (ev):

   -19.4001 -15.9967 -13.7852 -13.7836 -13.6975 -13.5908 -13.5902  -8.1593
    -7.8364  -4.5763  -4.5389  -4.3355  -1.6052   2.1398   2.7951   2.8673
     5.3285   6.0534   6.4760   6.6419   7.2333   8.2818

          k = 0.2000 0.4000 0.4000 (  6520 PWs)   bands (ev):

   -19.3951 -15.7847 -13.8754 -13.7882 -13.7815 -13.6863 -13.5908  -8.1889
    -7.8229  -4.6346  -4.5512  -4.3867  -2.1226   2.8266   2.9309   3.5761
     5.2643   6.2266   6.4269   6.6470   7.1327   8.4851

          k = 0.4000 0.4000 0.4000 (  6560 PWs)   bands (ev):

   -19.3897 -15.7830 -13.8593 -13.7887 -13.7838 -13.6445 -13.5936  -8.0679
    -7.9234  -4.6579  -4.6470  -4.4401  -2.7326   2.9345   2.9930   3.5188
     6.1938   6.5991   6.6736   6.7988   7.6182   9.1257

          k = 0.2000 0.0000 0.0000 (  6527 PWs)   bands (ev):

   -19.4152 -16.1017 -13.7810 -13.7792 -13.7598 -13.5869 -13.4846  -8.3693
    -7.4105  -4.5348  -4.5274  -4.3431   0.2544   1.1237   2.6038   2.7879
     4.4209   5.3759   6.4941   6.8493   7.1155   7.1517

          k = 0.0000 0.2000 0.0000 (  6527 PWs)   bands (ev):

   -19.4165 -15.9885 -13.7836 -13.7825 -13.7813 -13.6358 -13.5852  -8.5195
    -7.2435  -4.5302  -4.5300  -4.3283  -0.1307   2.6333   2.7612   2.8883
     4.2117   4.2124   6.2281   6.7240   7.0973   7.1002

          k = 0.4000 0.0000 0.0000 (  6528 PWs)   bands (ev):

   -19.4069 -16.1071 -13.7836 -13.7792 -13.7257 -13.5895 -13.4578  -8.1503
    -7.7863  -4.5262  -4.5033  -4.3208  -0.4423   1.1244   2.5161   2.7516
     4.5216   6.2002   6.3907   6.8023   6.9924   8.1286

          k = 0.0000 0.4000 0.0000 (  6528 PWs)   bands (ev):

   -19.4104 -15.7762 -13.9030 -13.7845 -13.7833 -13.7805 -13.5851  -8.6451
    -7.2381  -4.5106  -4.5103  -4.2883  -0.6951   2.9781   2.9872   3.8952
     3.9083   4.4913   5.6240   6.4489   6.9701   6.9729

          k = 0.2000 0.0000-0.2000 (  6565 PWs)   bands (ev):

   -19.4106 -16.1036 -13.7810 -13.7809 -13.7328 -13.5884 -13.4741  -8.3161
    -7.5409  -4.5435  -4.5183  -4.3312  -0.3775   1.1319   2.7213   2.8135
     5.0425   5.6842   6.4951   6.7432   6.9453   7.3290

          k = 0.2000-0.2000 0.0000 (  6565 PWs)   bands (ev):

   -19.4116 -15.9919 -13.7840 -13.7812 -13.7605 -13.6236 -13.5868  -8.4366
    -7.4042  -4.5466  -4.5168  -4.3265  -0.5746   2.3873   2.7116   2.8684
     4.2790   5.2933   6.3411   6.7121   7.0145   7.1738

          k = 0.2000 0.0000-0.4000 (  6526 PWs)   bands (ev):

   -19.4032 -16.1065 -13.7834 -13.7808 -13.6936 -13.5908 -13.4506  -8.1407
    -7.8446  -4.5411  -4.5218  -4.3118  -1.0509   1.1449   2.7361   2.8235
     5.3921   5.9695   6.4223   6.6651   7.2687   8.2225

          k = 0.4000-0.2000 0.0000 (  6526 PWs)   bands (ev):

   -19.4037 -15.9973 -13.7864 -13.7811 -13.7325 -13.5927 -13.5893  -8.1827
    -7.7882  -4.5653  -4.4953  -4.3334  -1.1146   2.2745   2.6307   2.7762
     4.4000   6.1993   6.4823   6.6909   6.8666   8.2007

          k = 0.0000 0.4000 0.2000 (  6526 PWs)   bands (ev):

   -19.4059 -15.7798 -13.8959 -13.7857 -13.7804 -13.7566 -13.5867  -8.5404
    -7.3938  -4.5552  -4.5002  -4.3141  -1.1302   2.9083   2.9340   3.7885
     4.0361   5.3705   5.9286   6.5270   6.8645   7.2119

          k = 0.2000 0.4000 0.0000 (  6526 PWs)   bands (ev):

   -19.4059 -15.7797 -13.8961 -13.7843 -13.7818 -13.7565 -13.5867  -8.5403
    -7.3938  -4.5558  -4.4996  -4.3141  -1.1307   2.9028   2.9392   3.8215
     3.9964   5.3732   5.9300   6.5288   6.8676   7.2102

          k = 0.4000 0.0000 0.2000 (  6526 PWs)   bands (ev):

   -19.4033 -16.1064 -13.7835 -13.7808 -13.6935 -13.5908 -13.4507  -8.1405
    -7.8446  -4.5426  -4.5203  -4.3118  -1.0500   1.1454   2.7290   2.8270
     5.3901   5.9677   6.4130   6.6725   7.2700   8.2268

          k = 0.4000 0.0000-0.4000 (  6538 PWs)   bands (ev):

   -19.3974 -16.1052 -13.7833 -13.7832 -13.6447 -13.5929 -13.4342  -8.0906
    -7.9766  -4.5631  -4.5526  -4.2972  -1.7426   1.1796   2.8814   2.9301
     5.6860   6.4457   6.4831   6.6737   7.6145   8.9826

          k = 0.4000-0.4000 0.0000 (  6538 PWs)   bands (ev):

   -19.3986 -15.7854 -13.8893 -13.7841 -13.7839 -13.7075 -13.5891  -8.2338
    -7.7907  -4.6244  -4.4822  -4.3567  -1.6581   2.7681   2.8613   3.8159
     4.1573   6.1743   6.5259   6.5751   6.6788   8.4042

          k = 0.4000-0.2000 0.2000 (  6514 PWs)   bands (ev):

   -19.4002 -15.9965 -13.7861 -13.7827 -13.6974 -13.5908 -13.5904  -8.1590
    -7.8365  -4.5782  -4.5371  -4.3355  -1.6052   2.1431   2.7897   2.8671
     5.3260   6.0521   6.4675   6.6502   7.2345   8.2851

          k =-0.2000 0.4000 0.2000 (  6514 PWs)   bands (ev):

   -19.4018 -15.7816 -13.8861 -13.7858 -13.7815 -13.7323 -13.5882  -8.4498
    -7.5111  -4.5670  -4.5406  -4.3411  -1.5710   2.8321   2.9908   3.6096
     4.7511   5.7001   6.1548   6.5990   7.1136   7.1923

          k = 0.4000 0.2000-0.4000 (  6520 PWs)   bands (ev):

   -19.3945 -15.9953 -13.7860 -13.7853 -13.6446 -13.5931 -13.5808  -8.0820
    -7.9566  -4.5993  -4.5908  -4.3504  -2.2254   2.1050   2.9086   2.9582
     5.8705   6.5266   6.5533   6.7098   7.6238   9.0030

          k = 0.4000-0.4000 0.2000 (  6520 PWs)   bands (ev):

   -19.3952 -15.7845 -13.8756 -13.7859 -13.7838 -13.6862 -13.5908  -8.1885
    -7.8230  -4.6365  -4.5494  -4.3866  -2.1232   2.8211   2.9342   3.5792
     5.2571   6.2262   6.4248   6.6529   7.1339   8.4853

     highest occupied level (ev):     9.1257

!    total energy              =   -1485.54878319 Ry
     total all-electron energy =    -59834.206397 Ry
     estimated scf accuracy    <       0.00000004 Ry

     The total energy is the sum of the following terms:
     one-electron contribution =    -112.63002442 Ry
     hartree contribution      =      86.91597711 Ry
     xc contribution           =     -77.31525362 Ry
     ewald contribution        =    -220.62843431 Ry
     one-center paw contrib.   =   -1161.89104795 Ry

     convergence has been achieved in  26 iterations

     Forces acting on atoms (cartesian axes, Ry/au):

     atom    1 type  1   force =    -0.00253905    0.00000000    0.00000000
     atom    2 type  2   force =     0.00111264    0.00000000    0.00000000
     atom    3 type  4   force =    -0.00038939    0.00000000    0.00000000
     atom    4 type  4   force =     0.00062999    0.00000000    0.00000000
     atom    5 type  3   force =     0.00118580    0.00000000    0.00000000

     Total force =     0.003105     Total SCF correction =     0.000008


     Computing stress (Cartesian axis) and pressure

          total   stress  (Ry/bohr**3)                   (kbar)     P=       -4.20
  -0.00001605   0.00000000   0.00000000           -2.36        0.00        0.00
   0.00000000  -0.00005022   0.00000000            0.00       -7.39        0.00
   0.00000000   0.00000000  -0.00001945            0.00        0.00       -2.86


     BFGS Geometry Optimization
     Energy error            =      0.0E+00 Ry
     Gradient error          =      2.5E-03 Ry/Bohr

     number of scf cycles    =   1
     number of bfgs steps    =   0

     energy             new  =   -1485.5487831880 Ry

     new trust radius        =       0.0025390499 bohr
     new conv_thr            =       0.0000001000 Ry


ATOMIC_POSITIONS (angstrom)
Ba            2.3036563927        2.3050000000        2.3050000000
Bi            0.0005887860        0.0000000000        0.0000000000
O            -0.0002060555        0.0000000000        2.3050000000
O             2.3053333768        0.0000000000        0.0000000000
F             0.1006274999        2.3050000000        0.0000000000



     Writing config-only to output data dir /home/bond/Work/final-project/final/babio2f/cubic/relax/BaBiO2F_cubic_alat_4.61_ecut_70_nk_5/pwscf.save/
     NEW-OLD atomic charge density approx. for the potential

     total cpu time spent up to now is      315.5 secs

     Self-consistent Calculation

     iteration #  1     ecut=    70.00 Ry     beta= 0.70
     Davidson diagonalization with overlap
     ethr =  1.00E-06,  avg # of iterations =  6.3

     negative rho (up, down):  1.935E-05 0.000E+00

     total cpu time spent up to now is      327.9 secs

     total energy              =   -1485.54840083 Ry
     estimated scf accuracy    <       0.01602415 Ry

     iteration #  2     ecut=    70.00 Ry     beta= 0.70
     Davidson diagonalization with overlap
     ethr =  3.64E-05,  avg # of iterations =  1.9

     total cpu time spent up to now is      336.8 secs

     total energy              =   -1485.54861972 Ry
     estimated scf accuracy    <       0.00018146 Ry

     iteration #  3     ecut=    70.00 Ry     beta= 0.70
     Davidson diagonalization with overlap
     ethr =  4.12E-07,  avg # of iterations =  7.1

     total cpu time spent up to now is      346.6 secs

     total energy              =   -1485.54875027 Ry
     estimated scf accuracy    <       0.00429285 Ry

     iteration #  4     ecut=    70.00 Ry     beta= 0.70
     Davidson diagonalization with overlap
     ethr =  4.12E-07,  avg # of iterations =  2.0

     total cpu time spent up to now is      354.9 secs

     total energy              =   -1485.54876857 Ry
     estimated scf accuracy    <       0.00175483 Ry

     iteration #  5     ecut=    70.00 Ry     beta= 0.70
     Davidson diagonalization with overlap
     ethr =  4.12E-07,  avg # of iterations =  2.0

     total cpu time spent up to now is      363.9 secs

     total energy              =   -1485.54877760 Ry
     estimated scf accuracy    <       0.00052411 Ry

     iteration #  6     ecut=    70.00 Ry     beta= 0.70
     Davidson diagonalization with overlap
     ethr =  4.12E-07,  avg # of iterations =  1.5

     total cpu time spent up to now is      372.1 secs

     total energy              =   -1485.54877976 Ry
     estimated scf accuracy    <       0.00021758 Ry

     iteration #  7     ecut=    70.00 Ry     beta= 0.70
     Davidson diagonalization with overlap
     ethr =  4.12E-07,  avg # of iterations =  1.0

     total cpu time spent up to now is      380.3 secs

     total energy              =   -1485.54878019 Ry
     estimated scf accuracy    <       0.00026710 Ry

     iteration #  8     ecut=    70.00 Ry     beta= 0.70
     Davidson diagonalization with overlap
     ethr =  4.12E-07,  avg # of iterations =  1.0

     total cpu time spent up to now is      388.5 secs

     total energy              =   -1485.54878190 Ry
     estimated scf accuracy    <       0.00028045 Ry

     iteration #  9     ecut=    70.00 Ry     beta= 0.70
     Davidson diagonalization with overlap
     ethr =  4.12E-07,  avg # of iterations =  1.0

     total cpu time spent up to now is      396.8 secs

     total energy              =   -1485.54878350 Ry
     estimated scf accuracy    <       0.00026046 Ry

     iteration # 10     ecut=    70.00 Ry     beta= 0.70
     Davidson diagonalization with overlap
     ethr =  4.12E-07,  avg # of iterations =  1.0

     total cpu time spent up to now is      405.2 secs

     total energy              =   -1485.54878708 Ry
     estimated scf accuracy    <       0.00021462 Ry

     iteration # 11     ecut=    70.00 Ry     beta= 0.70
     Davidson diagonalization with overlap
     ethr =  4.12E-07,  avg # of iterations =  2.0

     total cpu time spent up to now is      413.6 secs

     End of self-consistent calculation

          k = 0.0000 0.0000 0.0000 (  6619 PWs)   bands (ev):

   -19.4204 -16.0988 -13.7840 -13.7796 -13.7795 -13.5855 -13.4975  -8.4368
    -7.2464  -4.5423  -4.5420  -4.3569   0.9785   1.1224   2.6576   2.6734
     4.3637   4.3643   6.5238   6.9255   7.1863   7.1888

          k = 0.0000 0.0000 0.2000 (  6527 PWs)   bands (ev):

   -19.4152 -16.1022 -13.7810 -13.7794 -13.7600 -13.5870 -13.4847  -8.3690
    -7.4101  -4.5350  -4.5272  -4.3432   0.2526   1.1230   2.6135   2.7816
     4.4217   5.3762   6.4993   6.8460   7.1128   7.1533

          k = 0.0000 0.0000 0.4000 (  6528 PWs)   bands (ev):

   -19.4068 -16.1078 -13.7837 -13.7794 -13.7260 -13.5896 -13.4577  -8.1501
    -7.7859  -4.5248  -4.5047  -4.3209  -0.4449   1.1232   2.5295   2.7450
     4.5230   6.2049   6.4012   6.7955   6.9891   8.1244

          k = 0.0000 0.2000 0.2000 (  6565 PWs)   bands (ev):

   -19.4117 -15.9924 -13.7829 -13.7827 -13.7606 -13.6237 -13.5870  -8.4363
    -7.4038  -4.5461  -4.5173  -4.3266  -0.5748   2.3729   2.7370   2.8591
     4.2802   5.2931   6.3432   6.7106   7.0120   7.1754

          k = 0.0000 0.2000 0.4000 (  6526 PWs)   bands (ev):

   -19.4036 -15.9980 -13.7853 -13.7825 -13.7327 -13.5927 -13.5895  -8.1826
    -7.7877  -4.5638  -4.4967  -4.3335  -1.1148   2.2561   2.6691   2.7601
     4.4019   6.2046   6.4900   6.6826   6.8635   8.1977

          k = 0.0000 0.4000 0.4000 (  6538 PWs)   bands (ev):

   -19.3985 -15.7862 -13.8891 -13.7880 -13.7803 -13.7078 -13.5893  -8.2339
    -7.7903  -4.6229  -4.4836  -4.3569  -1.6572   2.7769   2.8547   3.7880
     4.1908   6.1764   6.5248   6.5712   6.6758   8.4043

          k = 0.2000 0.2000 0.2000 (  6559 PWs)   bands (ev):

   -19.4073 -15.9941 -13.7839 -13.7829 -13.7327 -13.6155 -13.5885  -8.3680
    -7.5292  -4.5526  -4.5347  -4.3258  -1.0370   2.2113   2.7892   2.8871
     4.9300   5.6293   6.4315   6.6794   6.9894   7.2940

          k = 0.2000 0.2000 0.4000 (  6514 PWs)   bands (ev):

   -19.4002 -15.9971 -13.7854 -13.7837 -13.6976 -13.5909 -13.5904  -8.1588
    -7.8360  -4.5762  -4.5390  -4.3356  -1.6053   2.1395   2.7947   2.8670
     5.3287   6.0537   6.4761   6.6424   7.2338   8.2823

          k = 0.2000 0.4000 0.4000 (  6520 PWs)   bands (ev):

   -19.3952 -15.7851 -13.8756 -13.7883 -13.7816 -13.6864 -13.5910  -8.1884
    -7.8225  -4.6345  -4.5513  -4.3868  -2.1227   2.8263   2.9306   3.5758
     5.2645   6.2268   6.4271   6.6474   7.1331   8.4856

          k = 0.4000 0.4000 0.4000 (  6560 PWs)   bands (ev):

   -19.3898 -15.7834 -13.8595 -13.7888 -13.7839 -13.6446 -13.5938  -8.0674
    -7.9230  -4.6580  -4.6470  -4.4402  -2.7327   2.9342   2.9926   3.5185
     6.1941   6.5994   6.6739   6.7991   7.6187   9.1259

          k = 0.2000 0.0000 0.0000 (  6527 PWs)   bands (ev):

   -19.4153 -16.1021 -13.7811 -13.7794 -13.7599 -13.5870 -13.4848  -8.3689
    -7.4101  -4.5349  -4.5274  -4.3432   0.2544   1.1234   2.6035   2.7876
     4.4212   5.3760   6.4945   6.8496   7.1156   7.1522

          k = 0.0000 0.2000 0.0000 (  6527 PWs)   bands (ev):

   -19.4166 -15.9889 -13.7837 -13.7827 -13.7814 -13.6359 -13.5853  -8.5191
    -7.2431  -4.5303  -4.5300  -4.3284  -0.1308   2.6333   2.7609   2.8878
     4.2120   4.2124   6.2284   6.7245   7.0980   7.1004

          k = 0.4000 0.0000 0.0000 (  6528 PWs)   bands (ev):

   -19.4070 -16.1074 -13.7838 -13.7793 -13.7258 -13.5896 -13.4579  -8.1499
    -7.7859  -4.5263  -4.5033  -4.3209  -0.4423   1.1241   2.5158   2.7513
     4.5219   6.2008   6.3912   6.8025   6.9925   8.1287

          k = 0.0000 0.4000 0.0000 (  6528 PWs)   bands (ev):

   -19.4105 -15.7766 -13.9032 -13.7846 -13.7834 -13.7806 -13.5852  -8.6448
    -7.2377  -4.5107  -4.5103  -4.2884  -0.6952   2.9777   2.9868   3.8956
     3.9087   4.4909   5.6241   6.4494   6.9707   6.9730

          k = 0.2000 0.0000-0.2000 (  6565 PWs)   bands (ev):

   -19.4107 -16.1039 -13.7811 -13.7810 -13.7329 -13.5885 -13.4742  -8.3157
    -7.5405  -4.5436  -4.5183  -4.3313  -0.3775   1.1316   2.7210   2.8131
     5.0427   5.6844   6.4954   6.7436   6.9456   7.3295

          k = 0.2000-0.2000 0.0000 (  6565 PWs)   bands (ev):

   -19.4117 -15.9923 -13.7842 -13.7814 -13.7605 -13.6238 -13.5870  -8.4362
    -7.4037  -4.5467  -4.5168  -4.3267  -0.5747   2.3872   2.7113   2.8680
     4.2793   5.2935   6.3414   6.7124   7.0147   7.1743

          k = 0.2000 0.0000-0.4000 (  6526 PWs)   bands (ev):

   -19.4032 -16.1069 -13.7836 -13.7810 -13.6937 -13.5909 -13.4508  -8.1402
    -7.8441  -4.5411  -4.5219  -4.3119  -1.0509   1.1445   2.7358   2.8231
     5.3922   5.9697   6.4224   6.6657   7.2693   8.2230

          k = 0.4000-0.2000 0.0000 (  6526 PWs)   bands (ev):

   -19.4038 -15.9977 -13.7865 -13.7812 -13.7326 -13.5929 -13.5895  -8.1824
    -7.7878  -4.5653  -4.4953  -4.3335  -1.1146   2.2743   2.6304   2.7758
     4.4003   6.1998   6.4828   6.6911   6.8667   8.2008

          k = 0.0000 0.4000 0.2000 (  6526 PWs)   bands (ev):

   -19.4060 -15.7802 -13.8961 -13.7859 -13.7805 -13.7567 -13.5868  -8.5400
    -7.3934  -4.5552  -4.5003  -4.3142  -1.1303   2.9078   2.9337   3.7885
     4.0362   5.3707   5.9288   6.5274   6.8651   7.2122

          k = 0.2000 0.4000 0.0000 (  6526 PWs)   bands (ev):

   -19.4060 -15.7801 -13.8962 -13.7845 -13.7819 -13.7566 -13.5868  -8.5399
    -7.3933  -4.5559  -4.4996  -4.3142  -1.1307   2.9024   2.9388   3.8214
     3.9968   5.3734   5.9302   6.5292   6.8677   7.2107

          k = 0.4000 0.0000 0.2000 (  6526 PWs)   bands (ev):

   -19.4033 -16.1067 -13.7836 -13.7809 -13.6936 -13.5909 -13.4509  -8.1401
    -7.8442  -4.5427  -4.5203  -4.3120  -1.0500   1.1451   2.7286   2.8267
     5.3905   5.9681   6.4135   6.6728   7.2703   8.2269

          k = 0.4000 0.0000-0.4000 (  6538 PWs)   bands (ev):

   -19.3975 -16.1056 -13.7835 -13.7834 -13.6448 -13.5930 -13.4344  -8.0902
    -7.9762  -4.5631  -4.5525  -4.2974  -1.7426   1.1793   2.8810   2.9298
     5.6864   6.4460   6.4835   6.6740   7.6149   8.9829

          k = 0.4000-0.4000 0.0000 (  6538 PWs)   bands (ev):

   -19.3987 -15.7858 -13.8894 -13.7843 -13.7840 -13.7076 -13.5893  -8.2335
    -7.7903  -4.6245  -4.4822  -4.3568  -1.6581   2.7677   2.8608   3.8156
     4.1577   6.1747   6.5264   6.5754   6.6789   8.4042

          k = 0.4000-0.2000 0.2000 (  6514 PWs)   bands (ev):

   -19.4003 -15.9969 -13.7863 -13.7828 -13.6975 -13.5910 -13.5905  -8.1586
    -7.8361  -4.5783  -4.5370  -4.3356  -1.6052   2.1428   2.7893   2.8667
     5.3264   6.0524   6.4680   6.6504   7.2348   8.2852

          k =-0.2000 0.4000 0.2000 (  6514 PWs)   bands (ev):

   -19.4019 -15.7820 -13.8862 -13.7859 -13.7817 -13.7324 -13.5884  -8.4494
    -7.5106  -4.5670  -4.5406  -4.3412  -1.5711   2.8318   2.9904   3.6094
     4.7515   5.7003   6.1549   6.5994   7.1138   7.1927

          k = 0.4000 0.2000-0.4000 (  6520 PWs)   bands (ev):

   -19.3946 -15.9956 -13.7862 -13.7854 -13.6447 -13.5933 -13.5809  -8.0816
    -7.9562  -4.5993  -4.5908  -4.3505  -2.2254   2.1046   2.9083   2.9579
     5.8709   6.5270   6.5536   6.7102   7.6242   9.0033

          k = 0.4000-0.4000 0.2000 (  6520 PWs)   bands (ev):

   -19.3953 -15.7849 -13.8757 -13.7860 -13.7839 -13.6863 -13.5910  -8.1881
    -7.8225  -4.6366  -4.5493  -4.3867  -2.1232   2.8207   2.9338   3.5790
     5.2575   6.2265   6.4252   6.6532   7.1343   8.4854

     highest occupied level (ev):     9.1259

!    total energy              =   -1485.54879122 Ry
     total all-electron energy =    -59834.206405 Ry
     estimated scf accuracy    <       0.00000010 Ry

     The total energy is the sum of the following terms:
     one-electron contribution =    -112.63168825 Ry
     hartree contribution      =      86.91636197 Ry
     xc contribution           =     -77.31513548 Ry
     ewald contribution        =    -220.62724709 Ry
     one-center paw contrib.   =   -1161.89108236 Ry

     convergence has been achieved in  11 iterations

     Forces acting on atoms (cartesian axes, Ry/au):

     atom    1 type  1   force =    -0.00128281    0.00000000    0.00000000
     atom    2 type  2   force =     0.00070523    0.00000000    0.00000000
     atom    3 type  4   force =    -0.00059825    0.00000000    0.00000000
     atom    4 type  4   force =     0.00027015    0.00000000    0.00000000
     atom    5 type  3   force =     0.00090569    0.00000000    0.00000000

     Total force =     0.001842     Total SCF correction =     0.000432
     SCF correction compared to forces is large: reduce conv_thr to get better values


     Computing stress (Cartesian axis) and pressure

          total   stress  (Ry/bohr**3)                   (kbar)     P=       -4.37
  -0.00001725   0.00000000   0.00000000           -2.54        0.00        0.00
   0.00000000  -0.00005169   0.00000000            0.00       -7.60        0.00
   0.00000000   0.00000000  -0.00002017            0.00        0.00       -2.97

     Energy error            =      8.0E-06 Ry
     Gradient error          =      1.3E-03 Ry/Bohr

     number of scf cycles    =   2
     number of bfgs steps    =   1

     energy             old  =   -1485.5487831880 Ry
     energy             new  =   -1485.5487912154 Ry

     CASE: energy            _new < energy            _old

     new trust radius        =       0.0027929549 bohr
     new conv_thr            =       0.0000000010 Ry


ATOMIC_POSITIONS (angstrom)
Ba            2.3021784246        2.3050000000        2.3050000000
Bi            0.0013846252        0.0000000000        0.0000000000
O            -0.0008485161        0.0000000000        2.3050000000
O             2.3056502349        0.0000000000        0.0000000000
F             0.1016352314        2.3050000000        0.0000000000



     Writing config-only to output data dir /home/bond/Work/final-project/final/babio2f/cubic/relax/BaBiO2F_cubic_alat_4.61_ecut_70_nk_5/pwscf.save/
     NEW-OLD atomic charge density approx. for the potential

     total cpu time spent up to now is      431.3 secs

     Self-consistent Calculation

     iteration #  1     ecut=    70.00 Ry     beta= 0.70
     Davidson diagonalization with overlap
     ethr =  1.00E-06,  avg # of iterations =  8.1

     negative rho (up, down):  8.960E-04 0.000E+00

     total cpu time spent up to now is      444.6 secs

     total energy              =   -1485.54831031 Ry
     estimated scf accuracy    <       0.01867912 Ry

     iteration #  2     ecut=    70.00 Ry     beta= 0.70
     Davidson diagonalization with overlap
     ethr =  4.25E-05,  avg # of iterations =  2.0

     negative rho (up, down):  4.841E-05 0.000E+00

     total cpu time spent up to now is      453.3 secs

     total energy              =   -1485.54859599 Ry
     estimated scf accuracy    <       0.00031434 Ry

     iteration #  3     ecut=    70.00 Ry     beta= 0.70
     Davidson diagonalization with overlap
     ethr =  7.14E-07,  avg # of iterations =  6.3

     total cpu time spent up to now is      462.8 secs

     total energy              =   -1485.54874517 Ry
     estimated scf accuracy    <       0.00524964 Ry

     iteration #  4     ecut=    70.00 Ry     beta= 0.70
     Davidson diagonalization with overlap
     ethr =  7.14E-07,  avg # of iterations =  2.0

     total cpu time spent up to now is      471.7 secs

     total energy              =   -1485.54876417 Ry
     estimated scf accuracy    <       0.00221721 Ry

     iteration #  5     ecut=    70.00 Ry     beta= 0.70
     Davidson diagonalization with overlap
     ethr =  7.14E-07,  avg # of iterations =  1.1

     total cpu time spent up to now is      480.1 secs

     total energy              =   -1485.54877817 Ry
     estimated scf accuracy    <       0.00114441 Ry

     iteration #  6     ecut=    70.00 Ry     beta= 0.70
     Davidson diagonalization with overlap
     ethr =  7.14E-07,  avg # of iterations =  1.3

     total cpu time spent up to now is      488.6 secs

     total energy              =   -1485.54878428 Ry
     estimated scf accuracy    <       0.00041228 Ry

     iteration #  7     ecut=    70.00 Ry     beta= 0.70
     Davidson diagonalization with overlap
     ethr =  7.14E-07,  avg # of iterations =  1.0

     total cpu time spent up to now is      497.3 secs

     total energy              =   -1485.54878672 Ry
     estimated scf accuracy    <       0.00041516 Ry

     iteration #  8     ecut=    70.00 Ry     beta= 0.70
     Davidson diagonalization with overlap
     ethr =  7.14E-07,  avg # of iterations =  1.0

     total cpu time spent up to now is      505.6 secs

     total energy              =   -1485.54878748 Ry
     estimated scf accuracy    <       0.00038351 Ry

     iteration #  9     ecut=    70.00 Ry     beta= 0.70
     Davidson diagonalization with overlap
     ethr =  7.14E-07,  avg # of iterations =  1.0

     total cpu time spent up to now is      513.8 secs

     total energy              =   -1485.54879486 Ry
     estimated scf accuracy    <       0.00042589 Ry

     iteration # 10     ecut=    70.00 Ry     beta= 0.70
     Davidson diagonalization with overlap
     ethr =  7.14E-07,  avg # of iterations =  1.2

     total cpu time spent up to now is      522.4 secs

     total energy              =   -1485.54879929 Ry
     estimated scf accuracy    <       0.00015685 Ry

     iteration # 11     ecut=    70.00 Ry     beta= 0.70
     Davidson diagonalization with overlap
     ethr =  3.56E-07,  avg # of iterations =  1.9

     total cpu time spent up to now is      530.5 secs

     total energy              =   -1485.54880189 Ry
     estimated scf accuracy    <       0.00002439 Ry

     iteration # 12     ecut=    70.00 Ry     beta= 0.70
     Davidson diagonalization with overlap
     ethr =  5.54E-08,  avg # of iterations =  2.6

     total cpu time spent up to now is      539.3 secs

     total energy              =   -1485.54880270 Ry
     estimated scf accuracy    <       0.00002671 Ry

     iteration # 13     ecut=    70.00 Ry     beta= 0.70
     Davidson diagonalization with overlap
     ethr =  5.54E-08,  avg # of iterations =  1.5

     total cpu time spent up to now is      547.3 secs

     total energy              =   -1485.54880303 Ry
     estimated scf accuracy    <       0.00001495 Ry

     iteration # 14     ecut=    70.00 Ry     beta= 0.70
     Davidson diagonalization with overlap
     ethr =  3.40E-08,  avg # of iterations =  1.5

     total cpu time spent up to now is      555.9 secs

     total energy              =   -1485.54880322 Ry
     estimated scf accuracy    <       0.00000584 Ry

     iteration # 15     ecut=    70.00 Ry     beta= 0.70
     Davidson diagonalization with overlap
     ethr =  1.33E-08,  avg # of iterations =  2.4

     total cpu time spent up to now is      564.7 secs

     total energy              =   -1485.54880338 Ry
     estimated scf accuracy    <       0.00000171 Ry

     iteration # 16     ecut=    70.00 Ry     beta= 0.70
     Davidson diagonalization with overlap
     ethr =  3.88E-09,  avg # of iterations =  4.0

     total cpu time spent up to now is      573.7 secs

     total energy              =   -1485.54880352 Ry
     estimated scf accuracy    <       0.00000634 Ry

     iteration # 17     ecut=    70.00 Ry     beta= 0.70
     Davidson diagonalization with overlap
     ethr =  3.88E-09,  avg # of iterations =  1.3

     total cpu time spent up to now is      582.2 secs

     total energy              =   -1485.54880358 Ry
     estimated scf accuracy    <       0.00000696 Ry

     iteration # 18     ecut=    70.00 Ry     beta= 0.70
     Davidson diagonalization with overlap
     ethr =  3.88E-09,  avg # of iterations =  1.5

     total cpu time spent up to now is      590.3 secs

     total energy              =   -1485.54880360 Ry
     estimated scf accuracy    <       0.00000499 Ry

     iteration # 19     ecut=    70.00 Ry     beta= 0.70
     Davidson diagonalization with overlap
     ethr =  3.88E-09,  avg # of iterations =  1.1

     total cpu time spent up to now is      598.4 secs

     total energy              =   -1485.54880362 Ry
     estimated scf accuracy    <       0.00000398 Ry

     iteration # 20     ecut=    70.00 Ry     beta= 0.70
     Davidson diagonalization with overlap
     ethr =  3.88E-09,  avg # of iterations =  1.2

     total cpu time spent up to now is      606.3 secs

     total energy              =   -1485.54880363 Ry
     estimated scf accuracy    <       0.00000215 Ry

     iteration # 21     ecut=    70.00 Ry     beta= 0.70
     Davidson diagonalization with overlap
     ethr =  3.88E-09,  avg # of iterations =  1.4

     total cpu time spent up to now is      614.8 secs

     total energy              =   -1485.54880365 Ry
     estimated scf accuracy    <       0.00000010 Ry

     iteration # 22     ecut=    70.00 Ry     beta= 0.70
     Davidson diagonalization with overlap
     ethr =  2.21E-10,  avg # of iterations =  5.0

     total cpu time spent up to now is      624.6 secs

     total energy              =   -1485.54880367 Ry
     estimated scf accuracy    <       0.00000039 Ry

     iteration # 23     ecut=    70.00 Ry     beta= 0.70
     Davidson diagonalization with overlap
     ethr =  2.21E-10,  avg # of iterations =  1.4

     total cpu time spent up to now is      632.7 secs

     total energy              =   -1485.54880367 Ry
     estimated scf accuracy    <       0.00000027 Ry

     iteration # 24     ecut=    70.00 Ry     beta= 0.70
     Davidson diagonalization with overlap
     ethr =  2.21E-10,  avg # of iterations =  1.9

     total cpu time spent up to now is      641.1 secs

     total energy              =   -1485.54880367 Ry
     estimated scf accuracy    <       0.00000005 Ry

     iteration # 25     ecut=    70.00 Ry     beta= 0.70
     Davidson diagonalization with overlap
     ethr =  1.21E-10,  avg # of iterations =  1.6

     total cpu time spent up to now is      649.3 secs

     total energy              =   -1485.54880367 Ry
     estimated scf accuracy    <          3.2E-09 Ry

     iteration # 26     ecut=    70.00 Ry     beta= 0.70
     Davidson diagonalization with overlap
     ethr =  7.32E-12,  avg # of iterations =  5.0

     total cpu time spent up to now is      658.6 secs

     total energy              =   -1485.54880367 Ry
     estimated scf accuracy    <          7.3E-09 Ry

     iteration # 27     ecut=    70.00 Ry     beta= 0.70
     Davidson diagonalization with overlap
     ethr =  7.32E-12,  avg # of iterations =  1.3

     total cpu time spent up to now is      666.7 secs

     total energy              =   -1485.54880367 Ry
     estimated scf accuracy    <          4.0E-09 Ry

     iteration # 28     ecut=    70.00 Ry     beta= 0.70
     Davidson diagonalization with overlap
     ethr =  7.32E-12,  avg # of iterations =  2.0

     total cpu time spent up to now is      675.7 secs

     End of self-consistent calculation

          k = 0.0000 0.0000 0.0000 (  6619 PWs)   bands (ev):

   -19.4200 -16.0990 -13.7840 -13.7797 -13.7796 -13.5855 -13.4976  -8.4368
    -7.2464  -4.5419  -4.5417  -4.3565   0.9784   1.1223   2.6574   2.6732
     4.3635   4.3642   6.5237   6.9254   7.1861   7.1888

          k = 0.0000 0.0000 0.2000 (  6527 PWs)   bands (ev):

   -19.4148 -16.1024 -13.7811 -13.7795 -13.7600 -13.5870 -13.4848  -8.3690
    -7.4102  -4.5346  -4.5269  -4.3428   0.2525   1.1229   2.6135   2.7813
     4.4216   5.3761   6.4993   6.8458   7.1126   7.1533

          k = 0.0000 0.0000 0.4000 (  6528 PWs)   bands (ev):

   -19.4064 -16.1079 -13.7838 -13.7794 -13.7261 -13.5897 -13.4579  -8.1502
    -7.7859  -4.5245  -4.5044  -4.3205  -0.4450   1.1230   2.5296   2.7448
     4.5229   6.2049   6.4013   6.7953   6.9890   8.1243

          k = 0.0000 0.2000 0.2000 (  6565 PWs)   bands (ev):

   -19.4113 -15.9926 -13.7830 -13.7827 -13.7606 -13.6238 -13.5870  -8.4364
    -7.4039  -4.5458  -4.5170  -4.3263  -0.5749   2.3726   2.7369   2.8590
     4.2801   5.2930   6.3432   6.7105   7.0119   7.1754

          k = 0.0000 0.2000 0.4000 (  6526 PWs)   bands (ev):

   -19.4032 -15.9982 -13.7854 -13.7826 -13.7327 -13.5928 -13.5895  -8.1827
    -7.7878  -4.5635  -4.4964  -4.3331  -1.1149   2.2557   2.6693   2.7600
     4.4018   6.2046   6.4901   6.6824   6.8634   8.1976

          k = 0.0000 0.4000 0.4000 (  6538 PWs)   bands (ev):

   -19.3981 -15.7864 -13.8892 -13.7881 -13.7804 -13.7079 -13.5893  -8.2340
    -7.7904  -4.6226  -4.4833  -4.3565  -1.6572   2.7767   2.8546   3.7876
     4.1910   6.1763   6.5247   6.5711   6.6757   8.4041

          k = 0.2000 0.2000 0.2000 (  6559 PWs)   bands (ev):

   -19.4069 -15.9943 -13.7840 -13.7830 -13.7328 -13.6156 -13.5885  -8.3681
    -7.5292  -4.5523  -4.5344  -4.3254  -1.0371   2.2111   2.7891   2.8870
     4.9299   5.6292   6.4314   6.6794   6.9893   7.2940

          k = 0.2000 0.2000 0.4000 (  6514 PWs)   bands (ev):

   -19.3998 -15.9973 -13.7854 -13.7838 -13.6976 -13.5910 -13.5905  -8.1589
    -7.8361  -4.5759  -4.5387  -4.3352  -1.6054   2.1392   2.7946   2.8669
     5.3286   6.0537   6.4762   6.6423   7.2337   8.2822

          k = 0.2000 0.4000 0.4000 (  6520 PWs)   bands (ev):

   -19.3948 -15.7854 -13.8756 -13.7884 -13.7817 -13.6864 -13.5910  -8.1885
    -7.8226  -4.6342  -4.5510  -4.3864  -2.1228   2.8261   2.9304   3.5756
     5.2645   6.2268   6.4271   6.6472   7.1330   8.4854

          k = 0.4000 0.4000 0.4000 (  6560 PWs)   bands (ev):

   -19.3894 -15.7836 -13.8596 -13.7889 -13.7839 -13.6446 -13.5938  -8.0675
    -7.9231  -4.6577  -4.6466  -4.4398  -2.7327   2.9340   2.9925   3.5183
     6.1941   6.5994   6.6738   6.7990   7.6186   9.1258

          k = 0.2000 0.0000 0.0000 (  6527 PWs)   bands (ev):

   -19.4149 -16.1022 -13.7812 -13.7794 -13.7599 -13.5870 -13.4849  -8.3690
    -7.4101  -4.5345  -4.5271  -4.3428   0.2543   1.1232   2.6032   2.7874
     4.4209   5.3759   6.4943   6.8497   7.1156   7.1521

          k = 0.0000 0.2000 0.0000 (  6527 PWs)   bands (ev):

   -19.4162 -15.9891 -13.7838 -13.7827 -13.7815 -13.6360 -13.5853  -8.5192
    -7.2431  -4.5299  -4.5297  -4.3280  -0.1309   2.6333   2.7607   2.8874
     4.2117   4.2123   6.2283   6.7245   7.0979   7.1004

          k = 0.4000 0.0000 0.0000 (  6528 PWs)   bands (ev):

   -19.4066 -16.1076 -13.7838 -13.7794 -13.7259 -13.5897 -13.4581  -8.1500
    -7.7860  -4.5260  -4.5030  -4.3205  -0.4424   1.1240   2.5156   2.7511
     4.5217   6.2006   6.3909   6.8027   6.9925   8.1287

          k = 0.0000 0.4000 0.0000 (  6528 PWs)   bands (ev):

   -19.4101 -15.7768 -13.9032 -13.7847 -13.7835 -13.7806 -13.5853  -8.6448
    -7.2378  -4.5103  -4.5100  -4.2880  -0.6953   2.9775   2.9865   3.8959
     3.9085   4.4904   5.6240   6.4495   6.9706   6.9730

          k = 0.2000 0.0000-0.2000 (  6565 PWs)   bands (ev):

   -19.4103 -16.1041 -13.7812 -13.7811 -13.7330 -13.5886 -13.4744  -8.3158
    -7.5406  -4.5432  -4.5180  -4.3309  -0.3776   1.1315   2.7208   2.8129
     5.0426   5.6843   6.4953   6.7436   6.9455   7.3294

          k = 0.2000-0.2000 0.0000 (  6565 PWs)   bands (ev):

   -19.4113 -15.9924 -13.7842 -13.7814 -13.7606 -13.6239 -13.5870  -8.4363
    -7.4038  -4.5463  -4.5165  -4.3263  -0.5748   2.3870   2.7110   2.8678
     4.2791   5.2934   6.3413   6.7125   7.0147   7.1743

          k = 0.2000 0.0000-0.4000 (  6526 PWs)   bands (ev):

   -19.4028 -16.1071 -13.7836 -13.7810 -13.6938 -13.5909 -13.4509  -8.1403
    -7.8442  -4.5408  -4.5216  -4.3115  -1.0510   1.1444   2.7358   2.8229
     5.3921   5.9697   6.4225   6.6656   7.2692   8.2228

          k = 0.4000-0.2000 0.0000 (  6526 PWs)   bands (ev):

   -19.4034 -15.9978 -13.7866 -13.7813 -13.7326 -13.5930 -13.5895  -8.1824
    -7.7879  -4.5650  -4.4950  -4.3331  -1.1147   2.2741   2.6302   2.7757
     4.4001   6.1996   6.4826   6.6913   6.8667   8.2008

          k = 0.0000 0.4000 0.2000 (  6526 PWs)   bands (ev):

   -19.4055 -15.7805 -13.8961 -13.7859 -13.7805 -13.7567 -13.5868  -8.5401
    -7.3935  -4.5548  -4.4999  -4.3138  -1.1304   2.9074   2.9336   3.7882
     4.0365   5.3705   5.9286   6.5274   6.8650   7.2122

          k = 0.2000 0.4000 0.0000 (  6526 PWs)   bands (ev):

   -19.4056 -15.7803 -13.8963 -13.7845 -13.7819 -13.7566 -13.5868  -8.5400
    -7.3934  -4.5555  -4.4993  -4.3138  -1.1308   2.9022   2.9385   3.8213
     3.9967   5.3732   5.9301   6.5293   6.8677   7.2106

          k = 0.4000 0.0000 0.2000 (  6526 PWs)   bands (ev):

   -19.4029 -16.1069 -13.7837 -13.7810 -13.6936 -13.5909 -13.4510  -8.1401
    -7.8443  -4.5424  -4.5200  -4.3116  -1.0501   1.1450   2.7284   2.8266
     5.3904   5.9680   6.4133   6.6729   7.2702   8.2269

          k = 0.4000 0.0000-0.4000 (  6538 PWs)   bands (ev):

   -19.3971 -16.1058 -13.7835 -13.7834 -13.6448 -13.5930 -13.4346  -8.0902
    -7.9763  -4.5628  -4.5522  -4.2970  -1.7427   1.1791   2.8809   2.9296
     5.6864   6.4459   6.4836   6.6740   7.6148   8.9828

          k = 0.4000-0.4000 0.0000 (  6538 PWs)   bands (ev):

   -19.3983 -15.7860 -13.8895 -13.7843 -13.7841 -13.7077 -13.5893  -8.2335
    -7.7904  -4.6242  -4.4819  -4.3565  -1.6582   2.7675   2.8605   3.8155
     4.1576   6.1746   6.5263   6.5755   6.6790   8.4041

          k = 0.4000-0.2000 0.2000 (  6514 PWs)   bands (ev):

   -19.3999 -15.9971 -13.7863 -13.7829 -13.6975 -13.5910 -13.5906  -8.1587
    -7.8362  -4.5780  -4.5367  -4.3352  -1.6053   2.1426   2.7892   2.8665
     5.3263   6.0524   6.4678   6.6506   7.2347   8.2852

          k =-0.2000 0.4000 0.2000 (  6514 PWs)   bands (ev):

   -19.4015 -15.7822 -13.8863 -13.7860 -13.7817 -13.7325 -13.5884  -8.4495
    -7.5107  -4.5667  -4.5402  -4.3408  -1.5711   2.8315   2.9902   3.6092
     4.7515   5.7002   6.1548   6.5994   7.1137   7.1927

          k = 0.4000 0.2000-0.4000 (  6520 PWs)   bands (ev):

   -19.3941 -15.9958 -13.7862 -13.7855 -13.6447 -13.5933 -13.5810  -8.0816
    -7.9562  -4.5990  -4.5905  -4.3501  -2.2255   2.1044   2.9081   2.9578
     5.8708   6.5269   6.5536   6.7101   7.6242   9.0032

          k = 0.4000-0.4000 0.2000 (  6520 PWs)   bands (ev):

   -19.3949 -15.7851 -13.8758 -13.7861 -13.7839 -13.6863 -13.5910  -8.1882
    -7.8226  -4.6363  -4.5490  -4.3864  -2.1233   2.8205   2.9336   3.5788
     5.2574   6.2264   6.4251   6.6532   7.1342   8.4852

     highest occupied level (ev):     9.1258

!    total energy              =   -1485.54880367 Ry
     total all-electron energy =    -59834.206417 Ry
     estimated scf accuracy    <          2.2E-11 Ry

     The total energy is the sum of the following terms:
     one-electron contribution =    -112.63412687 Ry
     hartree contribution      =      86.91735264 Ry
     xc contribution           =     -77.31507970 Ry
     ewald contribution        =    -220.62589949 Ry
     one-center paw contrib.   =   -1161.89105025 Ry

     convergence has been achieved in  28 iterations

     Forces acting on atoms (cartesian axes, Ry/au):

     atom    1 type  1   force =    -0.00236769    0.00000000    0.00000000
     atom    2 type  2   force =     0.00067642    0.00000000    0.00000000
     atom    3 type  4   force =    -0.00016656    0.00000000    0.00000000
     atom    4 type  4   force =     0.00056378    0.00000000    0.00000000
     atom    5 type  3   force =     0.00129405    0.00000000    0.00000000

     Total force =     0.002843     Total SCF correction =     0.000002


     Computing stress (Cartesian axis) and pressure

          total   stress  (Ry/bohr**3)                   (kbar)     P=       -4.44
  -0.00001768   0.00000000   0.00000000           -2.60        0.00        0.00
   0.00000000  -0.00005202   0.00000000            0.00       -7.65        0.00
   0.00000000   0.00000000  -0.00002082            0.00        0.00       -3.06

     Energy error            =      1.2E-05 Ry
     Gradient error          =      2.4E-03 Ry/Bohr

     number of scf cycles    =   3
     number of bfgs steps    =   2

     energy             old  =   -1485.5487912154 Ry
     energy             new  =   -1485.5488036691 Ry

     CASE: energy            _new < energy            _old


     WARNING: bfgs curvature condition failed, Theta= 0.514
     new trust radius        =       0.0006076070 bohr
     new conv_thr            =       0.0000000010 Ry


ATOMIC_POSITIONS (angstrom)
Ba            2.3020808065        2.3050000000        2.3050000000
Bi            0.0016318495        0.0000000000        0.0000000000
O            -0.0011700478        0.0000000000        2.3050000000
O             2.3056531558        0.0000000000        0.0000000000
F             0.1018042360        2.3050000000        0.0000000000



     Writing config-only to output data dir /home/bond/Work/final-project/final/babio2f/cubic/relax/BaBiO2F_cubic_alat_4.61_ecut_70_nk_5/pwscf.save/
     NEW-OLD atomic charge density approx. for the potential

     total cpu time spent up to now is      695.4 secs

     Self-consistent Calculation

     iteration #  1     ecut=    70.00 Ry     beta= 0.70
     Davidson diagonalization with overlap
     ethr =  1.00E-06,  avg # of iterations =  2.0

     Threshold (ethr) on eigenvalues was too large:
     Diagonalizing with lowered threshold

     Davidson diagonalization with overlap
     ethr =  5.14E-08,  avg # of iterations =  2.9

     total cpu time spent up to now is      713.4 secs

     total energy              =   -1485.54880293 Ry
     estimated scf accuracy    <       0.00004755 Ry

     iteration #  2     ecut=    70.00 Ry     beta= 0.70
     Davidson diagonalization with overlap
     ethr =  1.08E-07,  avg # of iterations =  1.9

     total cpu time spent up to now is      723.5 secs

     total energy              =   -1485.54880407 Ry
     estimated scf accuracy    <       0.00000029 Ry

     iteration #  3     ecut=    70.00 Ry     beta= 0.70
     Davidson diagonalization with overlap
     ethr =  6.62E-10,  avg # of iterations =  9.2

     total cpu time spent up to now is      738.2 secs

     total energy              =   -1485.54880477 Ry
     estimated scf accuracy    <       0.00001286 Ry

     iteration #  4     ecut=    70.00 Ry     beta= 0.70
     Davidson diagonalization with overlap
     ethr =  6.62E-10,  avg # of iterations =  2.0

     total cpu time spent up to now is      747.7 secs

     total energy              =   -1485.54880485 Ry
     estimated scf accuracy    <       0.00000458 Ry

     iteration #  5     ecut=    70.00 Ry     beta= 0.70
     Davidson diagonalization with overlap
     ethr =  6.62E-10,  avg # of iterations =  2.7

     total cpu time spent up to now is      757.9 secs

     total energy              =   -1485.54880488 Ry
     estimated scf accuracy    <       0.00000003 Ry

     iteration #  6     ecut=    70.00 Ry     beta= 0.70
     Davidson diagonalization with overlap
     ethr =  7.61E-11,  avg # of iterations =  5.1

     total cpu time spent up to now is      768.2 secs

     total energy              =   -1485.54880489 Ry
     estimated scf accuracy    <       0.00000045 Ry

     iteration #  7     ecut=    70.00 Ry     beta= 0.70
     Davidson diagonalization with overlap
     ethr =  7.61E-11,  avg # of iterations =  1.1

     total cpu time spent up to now is      777.9 secs

     total energy              =   -1485.54880490 Ry
     estimated scf accuracy    <       0.00000047 Ry

     iteration #  8     ecut=    70.00 Ry     beta= 0.70
     Davidson diagonalization with overlap
     ethr =  7.61E-11,  avg # of iterations =  5.7

     total cpu time spent up to now is      788.8 secs

     total energy              =   -1485.54880491 Ry
     estimated scf accuracy    <       0.00000006 Ry

     iteration #  9     ecut=    70.00 Ry     beta= 0.70
     Davidson diagonalization with overlap
     ethr =  7.61E-11,  avg # of iterations =  5.6

     total cpu time spent up to now is      799.9 secs

     total energy              =   -1485.54880492 Ry
     estimated scf accuracy    <          7.4E-09 Ry

     iteration # 10     ecut=    70.00 Ry     beta= 0.70
     Davidson diagonalization with overlap
     ethr =  1.68E-11,  avg # of iterations =  2.6

     total cpu time spent up to now is      809.6 secs

     total energy              =   -1485.54880492 Ry
     estimated scf accuracy    <          6.5E-09 Ry

     iteration # 11     ecut=    70.00 Ry     beta= 0.70
     Davidson diagonalization with overlap
     ethr =  1.48E-11,  avg # of iterations =  4.8

     total cpu time spent up to now is      820.5 secs

     total energy              =   -1485.54880492 Ry
     estimated scf accuracy    <          7.1E-09 Ry

     iteration # 12     ecut=    70.00 Ry     beta= 0.70
     Davidson diagonalization with overlap
     ethr =  1.48E-11,  avg # of iterations =  1.8

     total cpu time spent up to now is      830.4 secs

     total energy              =   -1485.54880492 Ry
     estimated scf accuracy    <          1.1E-09 Ry

     iteration # 13     ecut=    70.00 Ry     beta= 0.70
     Davidson diagonalization with overlap
     ethr =  2.49E-12,  avg # of iterations =  2.3

     total cpu time spent up to now is      840.8 secs

     End of self-consistent calculation

          k = 0.0000 0.0000 0.0000 (  6619 PWs)   bands (ev):

   -19.4199 -16.0990 -13.7840 -13.7797 -13.7796 -13.5855 -13.4976  -8.4368
    -7.2464  -4.5419  -4.5417  -4.3564   0.9785   1.1222   2.6573   2.6731
     4.3635   4.3642   6.5237   6.9255   7.1861   7.1889

          k = 0.0000 0.0000 0.2000 (  6527 PWs)   bands (ev):

   -19.4148 -16.1024 -13.7811 -13.7795 -13.7600 -13.5870 -13.4848  -8.3690
    -7.4102  -4.5346  -4.5268  -4.3428   0.2525   1.1228   2.6134   2.7812
     4.4216   5.3761   6.4993   6.8458   7.1126   7.1533

          k = 0.0000 0.0000 0.4000 (  6528 PWs)   bands (ev):

   -19.4064 -16.1080 -13.7838 -13.7794 -13.7261 -13.5897 -13.4579  -8.1502
    -7.7859  -4.5245  -4.5044  -4.3205  -0.4450   1.1230   2.5296   2.7447
     4.5229   6.2049   6.4013   6.7953   6.9889   8.1243

          k = 0.0000 0.2000 0.2000 (  6565 PWs)   bands (ev):

   -19.4112 -15.9926 -13.7830 -13.7827 -13.7606 -13.6238 -13.5870  -8.4364
    -7.4039  -4.5458  -4.5170  -4.3262  -0.5749   2.3727   2.7369   2.8589
     4.2801   5.2930   6.3432   6.7105   7.0119   7.1754

          k = 0.0000 0.2000 0.4000 (  6526 PWs)   bands (ev):

   -19.4032 -15.9983 -13.7854 -13.7826 -13.7327 -13.5928 -13.5895  -8.1827
    -7.7878  -4.5634  -4.4964  -4.3331  -1.1149   2.2557   2.6692   2.7599
     4.4018   6.2047   6.4901   6.6823   6.8633   8.1976

          k = 0.0000 0.4000 0.4000 (  6538 PWs)   bands (ev):

   -19.3981 -15.7865 -13.8892 -13.7881 -13.7804 -13.7079 -13.5893  -8.2340
    -7.7904  -4.6226  -4.4833  -4.3565  -1.6573   2.7767   2.8546   3.7876
     4.1910   6.1764   6.5247   6.5711   6.6756   8.4041

          k = 0.2000 0.2000 0.2000 (  6559 PWs)   bands (ev):

   -19.4069 -15.9943 -13.7840 -13.7830 -13.7328 -13.6156 -13.5885  -8.3681
    -7.5292  -4.5523  -4.5344  -4.3254  -1.0372   2.2110   2.7890   2.8869
     4.9299   5.6292   6.4313   6.6794   6.9893   7.2940

          k = 0.2000 0.2000 0.4000 (  6514 PWs)   bands (ev):

   -19.3997 -15.9974 -13.7854 -13.7838 -13.6976 -13.5910 -13.5905  -8.1589
    -7.8361  -4.5759  -4.5387  -4.3352  -1.6054   2.1392   2.7946   2.8668
     5.3286   6.0537   6.4762   6.6422   7.2337   8.2821

          k = 0.2000 0.4000 0.4000 (  6520 PWs)   bands (ev):

   -19.3948 -15.7854 -13.8756 -13.7884 -13.7817 -13.6864 -13.5910  -8.1885
    -7.8226  -4.6342  -4.5510  -4.3864  -2.1228   2.8261   2.9304   3.5756
     5.2645   6.2268   6.4271   6.6472   7.1330   8.4854

          k = 0.4000 0.4000 0.4000 (  6560 PWs)   bands (ev):

   -19.3894 -15.7837 -13.8596 -13.7889 -13.7839 -13.6447 -13.5938  -8.0675
    -7.9230  -4.6577  -4.6466  -4.4398  -2.7328   2.9340   2.9924   3.5182
     6.1941   6.5994   6.6738   6.7990   7.6186   9.1258

          k = 0.2000 0.0000 0.0000 (  6527 PWs)   bands (ev):

   -19.4148 -16.1023 -13.7812 -13.7794 -13.7599 -13.5870 -13.4849  -8.3690
    -7.4101  -4.5345  -4.5270  -4.3428   0.2543   1.1232   2.6032   2.7873
     4.4209   5.3759   6.4943   6.8497   7.1156   7.1521

          k = 0.0000 0.2000 0.0000 (  6527 PWs)   bands (ev):

   -19.4162 -15.9892 -13.7838 -13.7827 -13.7815 -13.6360 -13.5854  -8.5192
    -7.2431  -4.5299  -4.5296  -4.3280  -0.1310   2.6336   2.7606   2.8871
     4.2117   4.2123   6.2283   6.7245   7.0979   7.1004

          k = 0.4000 0.0000 0.0000 (  6528 PWs)   bands (ev):

   -19.4065 -16.1077 -13.7838 -13.7794 -13.7259 -13.5897 -13.4581  -8.1499
    -7.7860  -4.5259  -4.5030  -4.3205  -0.4424   1.1239   2.5155   2.7511
     4.5217   6.2006   6.3909   6.8027   6.9925   8.1287

          k = 0.0000 0.4000 0.0000 (  6528 PWs)   bands (ev):

   -19.4101 -15.7769 -13.9033 -13.7847 -13.7835 -13.7806 -13.5853  -8.6448
    -7.2378  -4.5103  -4.5099  -4.2880  -0.6954   2.9774   2.9864   3.8961
     3.9085   4.4901   5.6240   6.4495   6.9706   6.9731

          k = 0.2000 0.0000-0.2000 (  6565 PWs)   bands (ev):

   -19.4103 -16.1042 -13.7812 -13.7811 -13.7330 -13.5886 -13.4744  -8.3158
    -7.5406  -4.5432  -4.5179  -4.3309  -0.3776   1.1314   2.7207   2.8129
     5.0425   5.6843   6.4953   6.7436   6.9455   7.3294

          k = 0.2000-0.2000 0.0000 (  6565 PWs)   bands (ev):

   -19.4113 -15.9925 -13.7842 -13.7814 -13.7606 -13.6239 -13.5870  -8.4363
    -7.4038  -4.5463  -4.5165  -4.3263  -0.5748   2.3871   2.7110   2.8677
     4.2791   5.2934   6.3413   6.7125   7.0147   7.1743

          k = 0.2000 0.0000-0.4000 (  6526 PWs)   bands (ev):

   -19.4028 -16.1072 -13.7836 -13.7810 -13.6938 -13.5909 -13.4509  -8.1403
    -7.8442  -4.5408  -4.5216  -4.3115  -1.0510   1.1443   2.7357   2.8229
     5.3921   5.9697   6.4226   6.6656   7.2692   8.2228

          k = 0.4000-0.2000 0.0000 (  6526 PWs)   bands (ev):

   -19.4034 -15.9979 -13.7866 -13.7813 -13.7326 -13.5930 -13.5895  -8.1824
    -7.7879  -4.5650  -4.4950  -4.3331  -1.1147   2.2741   2.6301   2.7756
     4.4001   6.1996   6.4825   6.6913   6.8668   8.2008

          k = 0.0000 0.4000 0.2000 (  6526 PWs)   bands (ev):

   -19.4055 -15.7805 -13.8961 -13.7860 -13.7805 -13.7567 -13.5868  -8.5401
    -7.3935  -4.5548  -4.4999  -4.3138  -1.1304   2.9073   2.9336   3.7882
     4.0365   5.3705   5.9286   6.5274   6.8650   7.2122

          k = 0.2000 0.4000 0.0000 (  6526 PWs)   bands (ev):

   -19.4056 -15.7804 -13.8963 -13.7845 -13.7819 -13.7566 -13.5868  -8.5400
    -7.3934  -4.5555  -4.4993  -4.3138  -1.1309   2.9021   2.9384   3.8214
     3.9967   5.3732   5.9300   6.5293   6.8678   7.2106

          k = 0.4000 0.0000 0.2000 (  6526 PWs)   bands (ev):

   -19.4029 -16.1070 -13.7837 -13.7810 -13.6936 -13.5909 -13.4510  -8.1401
    -7.8443  -4.5424  -4.5200  -4.3115  -1.0501   1.1449   2.7283   2.8265
     5.3904   5.9680   6.4132   6.6730   7.2702   8.2269

          k = 0.4000 0.0000-0.4000 (  6538 PWs)   bands (ev):

   -19.3971 -16.1058 -13.7835 -13.7834 -13.6448 -13.5931 -13.4346  -8.0902
    -7.9762  -4.5628  -4.5522  -4.2969  -1.7427   1.1791   2.8808   2.9296
     5.6864   6.4459   6.4836   6.6740   7.6148   8.9828

          k = 0.4000-0.4000 0.0000 (  6538 PWs)   bands (ev):

   -19.3983 -15.7861 -13.8895 -13.7843 -13.7841 -13.7077 -13.5893  -8.2335
    -7.7904  -4.6242  -4.4818  -4.3564  -1.6582   2.7675   2.8605   3.8155
     4.1576   6.1746   6.5263   6.5755   6.6790   8.4041

          k = 0.4000-0.2000 0.2000 (  6514 PWs)   bands (ev):

   -19.3998 -15.9971 -13.7863 -13.7829 -13.6975 -13.5910 -13.5906  -8.1587
    -7.8362  -4.5780  -4.5367  -4.3352  -1.6053   2.1425   2.7892   2.8664
     5.3263   6.0524   6.4677   6.6506   7.2348   8.2852

          k =-0.2000 0.4000 0.2000 (  6514 PWs)   bands (ev):

   -19.4015 -15.7823 -13.8863 -13.7860 -13.7817 -13.7325 -13.5884  -8.4495
    -7.5107  -4.5667  -4.5402  -4.3408  -1.5712   2.8315   2.9901   3.6092
     4.7516   5.7002   6.1548   6.5994   7.1137   7.1927

          k = 0.4000 0.2000-0.4000 (  6520 PWs)   bands (ev):

   -19.3941 -15.9959 -13.7862 -13.7855 -13.6447 -13.5933 -13.5810  -8.0816
    -7.9562  -4.5990  -4.5904  -4.3501  -2.2256   2.1044   2.9081   2.9577
     5.8708   6.5269   6.5536   6.7101   7.6242   9.0032

          k = 0.4000-0.4000 0.2000 (  6520 PWs)   bands (ev):

   -19.3949 -15.7852 -13.8758 -13.7861 -13.7839 -13.6864 -13.5910  -8.1882
    -7.8226  -4.6363  -4.5490  -4.3863  -2.1233   2.8205   2.9335   3.5788
     5.2574   6.2265   6.4251   6.6532   7.1343   8.4852

     highest occupied level (ev):     9.1258

!    total energy              =   -1485.54880492 Ry
     total all-electron energy =    -59834.206418 Ry
     estimated scf accuracy    <          1.5E-10 Ry

     The total energy is the sum of the following terms:
     one-electron contribution =    -112.63457425 Ry
     hartree contribution      =      86.91756595 Ry
     xc contribution           =     -77.31508538 Ry
     ewald contribution        =    -220.62566081 Ry
     one-center paw contrib.   =   -1161.89105043 Ry

     convergence has been achieved in  13 iterations

     Forces acting on atoms (cartesian axes, Ry/au):

     atom    1 type  1   force =    -0.00234824    0.00000000    0.00000000
     atom    2 type  2   force =     0.00061930    0.00000000    0.00000000
     atom    3 type  4   force =    -0.00013990    0.00000000    0.00000000
     atom    4 type  4   force =     0.00056465    0.00000000    0.00000000
     atom    5 type  3   force =     0.00130419    0.00000000    0.00000000

     Total force =     0.002817     Total SCF correction =     0.000011


     Computing stress (Cartesian axis) and pressure

          total   stress  (Ry/bohr**3)                   (kbar)     P=       -4.44
  -0.00001767   0.00000000   0.00000000           -2.60        0.00        0.00
   0.00000000  -0.00005201   0.00000000            0.00       -7.65        0.00
   0.00000000   0.00000000  -0.00002082            0.00        0.00       -3.06

     Energy error            =      1.2E-06 Ry
     Gradient error          =      2.3E-03 Ry/Bohr

     number of scf cycles    =   4
     number of bfgs steps    =   3

     energy             old  =   -1485.5488036691 Ry
     energy             new  =   -1485.5488049181 Ry

     CASE: energy            _new < energy            _old


     WARNING: bfgs curvature condition failed, Theta= 0.828
     new trust radius        =       0.0006683677 bohr
     new conv_thr            =       0.0000000010 Ry


ATOMIC_POSITIONS (angstrom)
Ba            2.3019717826        2.3050000000        2.3050000000
Bi            0.0018947734        0.0000000000        0.0000000000
O            -0.0015237328        0.0000000000        2.3050000000
O             2.3056578028        0.0000000000        0.0000000000
F             0.1019993740        2.3050000000        0.0000000000



     Writing config-only to output data dir /home/bond/Work/final-project/final/babio2f/cubic/relax/BaBiO2F_cubic_alat_4.61_ecut_70_nk_5/pwscf.save/
     NEW-OLD atomic charge density approx. for the potential

     total cpu time spent up to now is      859.6 secs

     Self-consistent Calculation

     iteration #  1     ecut=    70.00 Ry     beta= 0.70
     Davidson diagonalization with overlap
     ethr =  1.00E-06,  avg # of iterations =  2.3

     Threshold (ethr) on eigenvalues was too large:
     Diagonalizing with lowered threshold

     Davidson diagonalization with overlap
     ethr =  6.42E-08,  avg # of iterations =  3.1

     total cpu time spent up to now is      877.5 secs

     total energy              =   -1485.54880384 Ry
     estimated scf accuracy    <       0.00006270 Ry

     iteration #  2     ecut=    70.00 Ry     beta= 0.70
     Davidson diagonalization with overlap
     ethr =  1.43E-07,  avg # of iterations =  1.9

     total cpu time spent up to now is      887.7 secs

     total energy              =   -1485.54880528 Ry
     estimated scf accuracy    <       0.00000046 Ry

     iteration #  3     ecut=    70.00 Ry     beta= 0.70
     Davidson diagonalization with overlap
     ethr =  1.05E-09,  avg # of iterations =  8.4

     total cpu time spent up to now is      902.0 secs

     total energy              =   -1485.54880607 Ry
     estimated scf accuracy    <       0.00001646 Ry

     iteration #  4     ecut=    70.00 Ry     beta= 0.70
     Davidson diagonalization with overlap
     ethr =  1.05E-09,  avg # of iterations =  2.0

     total cpu time spent up to now is      912.3 secs

     total energy              =   -1485.54880617 Ry
     estimated scf accuracy    <       0.00000601 Ry

     iteration #  5     ecut=    70.00 Ry     beta= 0.70
     Davidson diagonalization with overlap
     ethr =  1.05E-09,  avg # of iterations =  2.4

     total cpu time spent up to now is      922.8 secs

     total energy              =   -1485.54880621 Ry
     estimated scf accuracy    <       0.00000005 Ry

     iteration #  6     ecut=    70.00 Ry     beta= 0.70
     Davidson diagonalization with overlap
     ethr =  1.22E-10,  avg # of iterations =  5.3

     total cpu time spent up to now is      933.7 secs

     total energy              =   -1485.54880622 Ry
     estimated scf accuracy    <       0.00000050 Ry

     iteration #  7     ecut=    70.00 Ry     beta= 0.70
     Davidson diagonalization with overlap
     ethr =  1.22E-10,  avg # of iterations =  1.1

     total cpu time spent up to now is      942.5 secs

     total energy              =   -1485.54880624 Ry
     estimated scf accuracy    <       0.00000053 Ry

     iteration #  8     ecut=    70.00 Ry     beta= 0.70
     Davidson diagonalization with overlap
     ethr =  1.22E-10,  avg # of iterations =  6.1

     total cpu time spent up to now is      953.6 secs

     total energy              =   -1485.54880626 Ry
     estimated scf accuracy    <       0.00000005 Ry

     iteration #  9     ecut=    70.00 Ry     beta= 0.70
     Davidson diagonalization with overlap
     ethr =  1.06E-10,  avg # of iterations =  3.1

     total cpu time spent up to now is      963.6 secs

     total energy              =   -1485.54880626 Ry
     estimated scf accuracy    <          1.4E-09 Ry

     iteration # 10     ecut=    70.00 Ry     beta= 0.70
     Davidson diagonalization with overlap
     ethr =  3.28E-12,  avg # of iterations =  7.6

     total cpu time spent up to now is      975.8 secs

     total energy              =   -1485.54880626 Ry
     estimated scf accuracy    <       0.00000003 Ry

     iteration # 11     ecut=    70.00 Ry     beta= 0.70
     Davidson diagonalization with overlap
     ethr =  3.28E-12,  avg # of iterations =  6.3

     total cpu time spent up to now is      986.8 secs

     End of self-consistent calculation

          k = 0.0000 0.0000 0.0000 (  6619 PWs)   bands (ev):

   -19.4199 -16.0991 -13.7840 -13.7797 -13.7796 -13.5855 -13.4976  -8.4368
    -7.2464  -4.5419  -4.5417  -4.3564   0.9785   1.1221   2.6573   2.6730
     4.3634   4.3642   6.5237   6.9255   7.1861   7.1889

          k = 0.0000 0.0000 0.2000 (  6527 PWs)   bands (ev):

   -19.4148 -16.1025 -13.7811 -13.7795 -13.7600 -13.5870 -13.4848  -8.3690
    -7.4102  -4.5346  -4.5268  -4.3428   0.2525   1.1227   2.6134   2.7811
     4.4216   5.3761   6.4993   6.8458   7.1126   7.1534

          k = 0.0000 0.0000 0.4000 (  6528 PWs)   bands (ev):

   -19.4063 -16.1081 -13.7838 -13.7794 -13.7261 -13.5897 -13.4579  -8.1501
    -7.7859  -4.5245  -4.5044  -4.3204  -0.4450   1.1229   2.5295   2.7446
     4.5228   6.2049   6.4013   6.7953   6.9889   8.1243

          k = 0.0000 0.2000 0.2000 (  6565 PWs)   bands (ev):

   -19.4112 -15.9927 -13.7830 -13.7827 -13.7606 -13.6238 -13.5870  -8.4364
    -7.4038  -4.5458  -4.5169  -4.3262  -0.5749   2.3727   2.7368   2.8587
     4.2801   5.2930   6.3432   6.7105   7.0118   7.1754

          k = 0.0000 0.2000 0.4000 (  6526 PWs)   bands (ev):

   -19.4032 -15.9983 -13.7854 -13.7826 -13.7327 -13.5928 -13.5895  -8.1827
    -7.7878  -4.5634  -4.4964  -4.3330  -1.1149   2.2557   2.6691   2.7598
     4.4018   6.2047   6.4901   6.6823   6.8633   8.1976

          k = 0.0000 0.4000 0.4000 (  6538 PWs)   bands (ev):

   -19.3981 -15.7866 -13.8892 -13.7881 -13.7804 -13.7079 -13.5893  -8.2340
    -7.7903  -4.6225  -4.4833  -4.3565  -1.6573   2.7766   2.8546   3.7875
     4.1910   6.1764   6.5247   6.5711   6.6756   8.4041

          k = 0.2000 0.2000 0.2000 (  6559 PWs)   bands (ev):

   -19.4069 -15.9944 -13.7840 -13.7830 -13.7328 -13.6156 -13.5885  -8.3681
    -7.5292  -4.5523  -4.5344  -4.3254  -1.0372   2.2110   2.7889   2.8868
     4.9299   5.6292   6.4313   6.6794   6.9893   7.2940

          k = 0.2000 0.2000 0.4000 (  6514 PWs)   bands (ev):

   -19.3997 -15.9974 -13.7854 -13.7838 -13.6976 -13.5910 -13.5905  -8.1589
    -7.8361  -4.5758  -4.5387  -4.3352  -1.6054   2.1391   2.7945   2.8668
     5.3286   6.0537   6.4763   6.6422   7.2337   8.2821

          k = 0.2000 0.4000 0.4000 (  6520 PWs)   bands (ev):

   -19.3947 -15.7855 -13.8756 -13.7884 -13.7817 -13.6864 -13.5910  -8.1885
    -7.8226  -4.6342  -4.5510  -4.3864  -2.1228   2.8260   2.9304   3.5755
     5.2645   6.2268   6.4271   6.6472   7.1330   8.4854

          k = 0.4000 0.4000 0.4000 (  6560 PWs)   bands (ev):

   -19.3893 -15.7838 -13.8596 -13.7889 -13.7839 -13.6446 -13.5938  -8.0675
    -7.9230  -4.6576  -4.6466  -4.4398  -2.7328   2.9339   2.9923   3.5181
[...]
     Davidson diagonalization with overlap
     ethr =  1.58E-05,  avg # of iterations =  2.0

     negative rho (up, down):  8.654E-01 0.000E+00

     total cpu time spent up to now is     8608.7 secs

     total energy              =   -1485.45737583 Ry
     estimated scf accuracy    <       0.56925116 Ry

     iteration # 55     ecut=    70.00 Ry     beta= 0.70
     Davidson diagonalization with overlap
     ethr =  1.58E-05,  avg # of iterations =  6.0

     negative rho (up, down):  8.182E-01 0.000E+00

     total cpu time spent up to now is     8620.6 secs

     total energy              =   -1485.47525274 Ry
     estimated scf accuracy    <       0.19741585 Ry

     iteration # 56     ecut=    70.00 Ry     beta= 0.70
     Davidson diagonalization with overlap
     ethr =  1.58E-05,  avg # of iterations =  6.7

     negative rho (up, down):  8.238E-01 0.000E+00

     total cpu time spent up to now is     8629.9 secs

     total energy              =   -1485.47722740 Ry
     estimated scf accuracy    <       0.50159939 Ry

     iteration # 57     ecut=    70.00 Ry     beta= 0.70
     Davidson diagonalization with overlap
     ethr =  1.58E-05,  avg # of iterations =  2.0

     negative rho (up, down):  8.896E-01 0.000E+00

     total cpu time spent up to now is     8637.9 secs

     total energy              =   -1485.45182425 Ry
     estimated scf accuracy    <       0.50739386 Ry

     iteration # 58     ecut=    70.00 Ry     beta= 0.70
     Davidson diagonalization with overlap
     ethr =  1.58E-05,  avg # of iterations =  5.6

     negative rho (up, down):  8.383E-01 0.000E+00

     total cpu time spent up to now is     8647.5 secs

     total energy              =   -1485.46226753 Ry
     estimated scf accuracy    <       0.35220781 Ry

     iteration # 59     ecut=    70.00 Ry     beta= 0.70
     Davidson diagonalization with overlap
     ethr =  1.58E-05,  avg # of iterations =  5.6

     negative rho (up, down):  7.696E-01 0.000E+00

     total cpu time spent up to now is     8658.3 secs

     total energy              =   -1485.48635431 Ry
     estimated scf accuracy    <       0.15798322 Ry

     iteration # 60     ecut=    70.00 Ry     beta= 0.70
     Davidson diagonalization with overlap
     ethr =  1.58E-05,  avg # of iterations =  7.0

     negative rho (up, down):  7.901E-01 0.000E+00

     total cpu time spent up to now is     8668.5 secs

     total energy              =   -1485.49613261 Ry
     estimated scf accuracy    <       0.84872107 Ry

     iteration # 61     ecut=    70.00 Ry     beta= 0.70
     Davidson diagonalization with overlap
     ethr =  1.58E-05,  avg # of iterations =  2.1

     negative rho (up, down):  7.889E-01 0.000E+00

     total cpu time spent up to now is     8677.1 secs

     total energy              =   -1485.49112870 Ry
     estimated scf accuracy    <       0.94045439 Ry

     iteration # 62     ecut=    70.00 Ry     beta= 0.70
     Davidson diagonalization with overlap
     ethr =  1.58E-05,  avg # of iterations =  2.0

     negative rho (up, down):  8.545E-01 0.000E+00

     total cpu time spent up to now is     8685.6 secs

     total energy              =   -1485.45700707 Ry
     estimated scf accuracy    <       0.87809964 Ry

     iteration # 63     ecut=    70.00 Ry     beta= 0.70
     Davidson diagonalization with overlap
     ethr =  1.58E-05,  avg # of iterations =  8.2

     negative rho (up, down):  9.530E-01 0.000E+00

     total cpu time spent up to now is     8696.7 secs

     total energy              =   -1485.43210983 Ry
     estimated scf accuracy    <       0.26977938 Ry

     iteration # 64     ecut=    70.00 Ry     beta= 0.70
     Davidson diagonalization with overlap
     ethr =  1.58E-05,  avg # of iterations =  8.2

     negative rho (up, down):  1.041E+00 0.000E+00

     total cpu time spent up to now is     8706.8 secs

     total energy              =   -1485.42743408 Ry
     estimated scf accuracy    <       0.05585615 Ry

     iteration # 65     ecut=    70.00 Ry     beta= 0.70
     Davidson diagonalization with overlap
     ethr =  1.58E-05,  avg # of iterations =  6.4

     negative rho (up, down):  1.189E+00 0.000E+00

     total cpu time spent up to now is     8716.4 secs

     total energy              =   -1485.42298862 Ry
     estimated scf accuracy    <       0.30254802 Ry

     iteration # 66     ecut=    70.00 Ry     beta= 0.70
     Davidson diagonalization with overlap
     ethr =  1.58E-05,  avg # of iterations =  7.1

     negative rho (up, down):  8.822E-01 0.000E+00

     total cpu time spent up to now is     8726.5 secs

     total energy              =   -1485.45326198 Ry
     estimated scf accuracy    <       1.89582559 Ry

     iteration # 67     ecut=    70.00 Ry     beta= 0.70
     Davidson diagonalization with overlap
     ethr =  1.58E-05,  avg # of iterations =  5.8

     negative rho (up, down):  6.842E-01 0.000E+00

     total cpu time spent up to now is     8736.6 secs

     total energy              =   -1485.50464717 Ry
     estimated scf accuracy    <       0.50582090 Ry

     iteration # 68     ecut=    70.00 Ry     beta= 0.70
     Davidson diagonalization with overlap
     ethr =  1.58E-05,  avg # of iterations =  5.9

     negative rho (up, down):  6.550E-01 0.000E+00

     total cpu time spent up to now is     8746.3 secs

     total energy              =   -1485.50034523 Ry
     estimated scf accuracy    <       0.45641667 Ry

     iteration # 69     ecut=    70.00 Ry     beta= 0.70
     Davidson diagonalization with overlap
     ethr =  1.58E-05,  avg # of iterations =  7.1

     negative rho (up, down):  8.088E-01 0.000E+00

     total cpu time spent up to now is     8756.1 secs

     total energy              =   -1485.48462958 Ry
     estimated scf accuracy    <       0.08400626 Ry

     iteration # 70     ecut=    70.00 Ry     beta= 0.70
     Davidson diagonalization with overlap
     ethr =  1.58E-05,  avg # of iterations =  7.4

     negative rho (up, down):  7.405E-01 0.000E+00

     total cpu time spent up to now is     8765.9 secs

     total energy              =   -1485.53020203 Ry
     estimated scf accuracy    <       0.85757614 Ry

     iteration # 71     ecut=    70.00 Ry     beta= 0.70
     Davidson diagonalization with overlap
     ethr =  1.58E-05,  avg # of iterations =  7.2

     negative rho (up, down):  7.493E-01 0.000E+00

     total cpu time spent up to now is     8776.7 secs

     total energy              =   -1485.53767446 Ry
     estimated scf accuracy    <       2.25615578 Ry

     iteration # 72     ecut=    70.00 Ry     beta= 0.70
     Davidson diagonalization with overlap
     ethr =  1.58E-05,  avg # of iterations =  1.0

     negative rho (up, down):  7.462E-01 0.000E+00

     total cpu time spent up to now is     8784.7 secs

     total energy              =   -1485.53913033 Ry
     estimated scf accuracy    <       2.21825219 Ry

     iteration # 73     ecut=    70.00 Ry     beta= 0.70
     Davidson diagonalization with overlap
     ethr =  1.58E-05,  avg # of iterations =  1.0

     negative rho (up, down):  7.771E-01 0.000E+00

     total cpu time spent up to now is     8793.1 secs

     total energy              =   -1485.51824328 Ry
     estimated scf accuracy    <       2.22499494 Ry

     iteration # 74     ecut=    70.00 Ry     beta= 0.70
     Davidson diagonalization with overlap
     ethr =  1.58E-05,  avg # of iterations =  5.8

     negative rho (up, down):  6.311E-01 0.000E+00

     total cpu time spent up to now is     8802.6 secs

     total energy              =   -1485.51916308 Ry
     estimated scf accuracy    <       1.73554221 Ry

     iteration # 75     ecut=    70.00 Ry     beta= 0.70
     Davidson diagonalization with overlap
     ethr =  1.58E-05,  avg # of iterations =  7.3

     negative rho (up, down):  7.132E-01 0.000E+00

     total cpu time spent up to now is     8812.3 secs

     total energy              =   -1485.55563334 Ry
     estimated scf accuracy    <       0.57045621 Ry

     iteration # 76     ecut=    70.00 Ry     beta= 0.70
     Davidson diagonalization with overlap
     ethr =  1.58E-05,  avg # of iterations =  7.6

     negative rho (up, down):  6.588E-01 0.000E+00

     total cpu time spent up to now is     8823.2 secs

     total energy              =   -1485.49124615 Ry
     estimated scf accuracy    <       3.28521726 Ry

     iteration # 77     ecut=    70.00 Ry     beta= 0.70
     Davidson diagonalization with overlap
     ethr =  1.58E-05,  avg # of iterations =  7.1

     negative rho (up, down):  6.915E-01 0.000E+00

     total cpu time spent up to now is     8833.9 secs

     total energy              =   -1485.54681822 Ry
     estimated scf accuracy    <       0.47362121 Ry

     iteration # 78     ecut=    70.00 Ry     beta= 0.70
     Davidson diagonalization with overlap
     ethr =  1.58E-05,  avg # of iterations =  7.7

     negative rho (up, down):  5.630E-01 0.000E+00

     total cpu time spent up to now is     8845.3 secs

     total energy              =   -1485.53153876 Ry
     estimated scf accuracy    <       2.92598467 Ry

     iteration # 79     ecut=    70.00 Ry     beta= 0.70
     Davidson diagonalization with overlap
     ethr =  1.58E-05,  avg # of iterations =  6.8

     negative rho (up, down):  4.467E-01 0.000E+00

     total cpu time spent up to now is     8856.0 secs

     total energy              =   -1485.52690915 Ry
     estimated scf accuracy    <       0.87486063 Ry

     iteration # 80     ecut=    70.00 Ry     beta= 0.70
     Davidson diagonalization with overlap
     ethr =  1.58E-05,  avg # of iterations =  7.3

     negative rho (up, down):  6.545E-01 0.000E+00

     total cpu time spent up to now is     8866.5 secs

     total energy              =   -1485.51388849 Ry
     estimated scf accuracy    <       0.02576462 Ry

     iteration # 81     ecut=    70.00 Ry     beta= 0.70
     Davidson diagonalization with overlap
     ethr =  1.58E-05,  avg # of iterations =  5.8

     negative rho (up, down):  1.024E+00 0.000E+00

     total cpu time spent up to now is     8876.2 secs

     total energy              =   -1485.40025256 Ry
     estimated scf accuracy    <       0.26287960 Ry

     iteration # 82     ecut=    70.00 Ry     beta= 0.70
     Davidson diagonalization with overlap
     ethr =  1.58E-05,  avg # of iterations =  5.2

     negative rho (up, down):  7.816E-01 0.000E+00

     total cpu time spent up to now is     8887.8 secs

     total energy              =   -1485.47939757 Ry
     estimated scf accuracy    <       0.15627233 Ry

     iteration # 83     ecut=    70.00 Ry     beta= 0.70
     Davidson diagonalization with overlap
     ethr =  1.58E-05,  avg # of iterations =  7.0

     negative rho (up, down):  5.625E-01 0.000E+00

     total cpu time spent up to now is     8898.7 secs

     total energy              =   -1485.52940645 Ry
     estimated scf accuracy    <       1.19269922 Ry

     iteration # 84     ecut=    70.00 Ry     beta= 0.70
     Davidson diagonalization with overlap
     ethr =  1.58E-05,  avg # of iterations =  6.1

     negative rho (up, down):  3.977E-01 0.000E+00

     total cpu time spent up to now is     8908.5 secs

     total energy              =   -1485.55048873 Ry
     estimated scf accuracy    <       0.44648492 Ry

     iteration # 85     ecut=    70.00 Ry     beta= 0.70
     Davidson diagonalization with overlap
     ethr =  1.58E-05,  avg # of iterations =  5.9

     negative rho (up, down):  4.681E-01 0.000E+00

     total cpu time spent up to now is     8917.5 secs

     total energy              =   -1485.53973068 Ry
     estimated scf accuracy    <       0.52980295 Ry

     iteration # 86     ecut=    70.00 Ry     beta= 0.70
     Davidson diagonalization with overlap
     ethr =  1.58E-05,  avg # of iterations =  5.7

     negative rho (up, down):  7.433E-01 0.000E+00

     total cpu time spent up to now is     8926.4 secs

     total energy              =   -1485.53808352 Ry
     estimated scf accuracy    <       0.27281634 Ry

     iteration # 87     ecut=    70.00 Ry     beta= 0.70
     Davidson diagonalization with overlap
     ethr =  1.58E-05,  avg # of iterations =  7.6

     negative rho (up, down):  1.271E-01 0.000E+00

     total cpu time spent up to now is     8937.8 secs

     total energy              =   -1485.53664888 Ry
     estimated scf accuracy    <       2.82025500 Ry

     iteration # 88     ecut=    70.00 Ry     beta= 0.70
     Davidson diagonalization with overlap
     ethr =  1.58E-05,  avg # of iterations =  6.3

     negative rho (up, down):  1.931E-01 0.000E+00

     total cpu time spent up to now is     8948.3 secs

     total energy              =   -1485.55035851 Ry
     estimated scf accuracy    <       0.12386637 Ry

     iteration # 89     ecut=    70.00 Ry     beta= 0.70
     Davidson diagonalization with overlap
     ethr =  1.58E-05,  avg # of iterations =  1.0

     negative rho (up, down):  3.810E-01 0.000E+00

     total cpu time spent up to now is     8956.4 secs

     total energy              =   -1485.55394013 Ry
     estimated scf accuracy    <       0.17973655 Ry

     iteration # 90     ecut=    70.00 Ry     beta= 0.70
     Davidson diagonalization with overlap
     ethr =  1.58E-05,  avg # of iterations =  3.4

     negative rho (up, down):  1.464E+00 0.000E+00

     total cpu time spent up to now is     8965.1 secs

     total energy              =   -1485.26385104 Ry
     estimated scf accuracy    <       0.50833941 Ry

     iteration # 91     ecut=    70.00 Ry     beta= 0.70
     Davidson diagonalization with overlap
     ethr =  1.58E-05,  avg # of iterations =  8.5

     negative rho (up, down):  1.058E+00 0.000E+00

     total cpu time spent up to now is     8976.8 secs

     total energy              =   -1485.40060411 Ry
     estimated scf accuracy    <       0.87829061 Ry

     iteration # 92     ecut=    70.00 Ry     beta= 0.70
     Davidson diagonalization with overlap
     ethr =  1.58E-05,  avg # of iterations =  5.7

     negative rho (up, down):  9.716E-01 0.000E+00

     total cpu time spent up to now is     8986.9 secs

     total energy              =   -1485.42954231 Ry
     estimated scf accuracy    <       0.18497402 Ry

     iteration # 93     ecut=    70.00 Ry     beta= 0.70
     Davidson diagonalization with overlap
     ethr =  1.58E-05,  avg # of iterations =  2.0

     negative rho (up, down):  8.746E-01 0.000E+00

     total cpu time spent up to now is     8995.7 secs

     total energy              =   -1485.45356252 Ry
     estimated scf accuracy    <       0.09283495 Ry

     iteration # 94     ecut=    70.00 Ry     beta= 0.70
     Davidson diagonalization with overlap
     ethr =  1.58E-05,  avg # of iterations =  3.6

     negative rho (up, down):  8.881E-01 0.000E+00

     total cpu time spent up to now is     9004.5 secs

     total energy              =   -1485.45277102 Ry
     estimated scf accuracy    <       0.03520880 Ry

     iteration # 95     ecut=    70.00 Ry     beta= 0.70
     Davidson diagonalization with overlap
     ethr =  1.58E-05,  avg # of iterations =  2.0

     negative rho (up, down):  8.917E-01 0.000E+00

     total cpu time spent up to now is     9013.1 secs

     total energy              =   -1485.45189272 Ry
     estimated scf accuracy    <       0.04474411 Ry

     iteration # 96     ecut=    70.00 Ry     beta= 0.70
     Davidson diagonalization with overlap
     ethr =  1.58E-05,  avg # of iterations =  5.5

     negative rho (up, down):  8.542E-01 0.000E+00

     total cpu time spent up to now is     9022.2 secs

     total energy              =   -1485.45264671 Ry
     estimated scf accuracy    <       0.18888277 Ry

     iteration # 97     ecut=    70.00 Ry     beta= 0.70
     Davidson diagonalization with overlap
     ethr =  1.58E-05,  avg # of iterations =  7.4

     negative rho (up, down):  9.829E-01 0.000E+00

     total cpu time spent up to now is     9032.4 secs

     total energy              =   -1485.42267521 Ry
     estimated scf accuracy    <       0.00585701 Ry

     iteration # 98     ecut=    70.00 Ry     beta= 0.70
     Davidson diagonalization with overlap
     ethr =  1.33E-05,  avg # of iterations =  6.0

     negative rho (up, down):  1.064E+00 0.000E+00

     total cpu time spent up to now is     9042.0 secs

     total energy              =   -1485.41123513 Ry
     estimated scf accuracy    <       0.07348636 Ry

     iteration # 99     ecut=    70.00 Ry     beta= 0.70
     Davidson diagonalization with overlap
     ethr =  1.33E-05,  avg # of iterations =  6.4

     negative rho (up, down):  1.067E+00 0.000E+00

     total cpu time spent up to now is     9051.3 secs

     total energy              =   -1485.41499150 Ry
     estimated scf accuracy    <       0.37291041 Ry

     iteration #100     ecut=    70.00 Ry     beta= 0.70
     Davidson diagonalization with overlap
     ethr =  1.33E-05,  avg # of iterations =  2.0

     negative rho (up, down):  8.604E-01 0.000E+00

     total cpu time spent up to now is     9059.8 secs

     total energy              =   -1485.44950228 Ry
     estimated scf accuracy    <       0.37647279 Ry

     End of self-consistent calculation

     convergence NOT achieved after 100 iterations: stopping

     Writing config to output data dir /home/bond/Work/final-project/final/babio2f/cubic/relax/BaBiO2F_cubic_alat_4.61_ecut_70_nk_5/pwscf.save/

     init_run     :      6.26s CPU      6.94s WALL (       1 calls)
     electrons    :   7641.13s CPU   8548.62s WALL (      29 calls)
     update_pot   :     28.21s CPU     30.68s WALL (      28 calls)
     forces       :     59.51s CPU     70.20s WALL (      28 calls)
     stress       :    316.05s CPU    353.63s WALL (      28 calls)

     Called by init_run:
     wfcinit      :      2.61s CPU      2.83s WALL (       1 calls)
     potinit      :      1.11s CPU      1.18s WALL (       1 calls)
     hinit0       :      1.88s CPU      1.95s WALL (       1 calls)

     Called by electrons:
     c_bands      :   4859.20s CPU   5128.11s WALL (     887 calls)
     sum_band     :   1549.35s CPU   1888.73s WALL (     887 calls)
     v_of_rho     :    160.40s CPU    169.71s WALL (     914 calls)
     newd         :    574.09s CPU    849.40s WALL (     914 calls)
     PAW_pot      :    505.97s CPU    528.14s WALL (     942 calls)
     mix_rho      :     29.38s CPU     30.86s WALL (     887 calls)

     Called by c_bands:
     init_us_2    :    158.86s CPU    166.98s WALL (   50193 calls)
     init_us_2:cp :    158.34s CPU    166.66s WALL (   50193 calls)
     cegterg      :   4508.12s CPU   4758.66s WALL (   23949 calls)

     Called by *egterg:
     cdiaghg      :     88.84s CPU     93.16s WALL (   99755 calls)
     h_psi        :   3530.28s CPU   3729.56s WALL (  100592 calls)
     s_psi        :    186.50s CPU    195.92s WALL (  100592 calls)
     g_psi        :     20.75s CPU     21.78s WALL (   76616 calls)

     Called by h_psi:
     h_psi:calbec :    228.25s CPU    240.79s WALL (  100592 calls)
     vloc_psi     :   3072.54s CPU   3248.11s WALL (  100592 calls)
     add_vuspsi   :    206.34s CPU    216.63s WALL (  100592 calls)

     General routines
     calbec       :    327.90s CPU    345.90s WALL (  129077 calls)
     fft          :    101.53s CPU    108.20s WALL (   12556 calls)
     ffts         :      4.01s CPU      4.17s WALL (    1801 calls)
     fftw         :   3269.81s CPU   3457.78s WALL ( 3007590 calls)
     interpolate  :     10.95s CPU     11.49s WALL (     914 calls)
     davcio       :      0.01s CPU      0.06s WALL (      45 calls)

     Parallel routines

     PWSCF        :      2h14m CPU      2h30m WALL


   This run was terminated on:  21:33: 7   6May2024            

=------------------------------------------------------------------------------=
   JOB DONE.
=------------------------------------------------------------------------------=
