
     Program PWSCF v.7.1 starts on  6May2024 at  6:22:21 

     This program is part of the open-source Quantum ESPRESSO suite
     for quantum simulation of materials; please cite
         "P. Giannozzi et al., J. Phys.:Condens. Matter 21 395502 (2009);
         "P. Giannozzi et al., J. Phys.:Condens. Matter 29 465901 (2017);
         "P. Giannozzi et al., J. Chem. Phys. 152 154105 (2020);
          URL http://www.quantum-espresso.org", 
     in publications or presentations arising from this work. More details at
     http://www.quantum-espresso.org/quote

     Parallel version (MPI), running on     2 processors

     MPI processes distributed on     1 nodes
     13396 MiB available memory on the printing compute node when the environment starts

     Waiting for input...
     Reading input from standard input
Warning: card &CELL ignored
Warning: card / ignored

     Current dimensions of program PWSCF are:
     Max number of different atomic species (ntypx) = 10
     Max number of k-points (npk) =  40000
     Max angular momentum in pseudopotentials (lmaxx) =  4
     file Ba.pbe-spn-kjpaw_psl.1.0.0.UPF: wavefunction(s)  5S 6S renormalized
     Message from routine setup:
     using ibrav=0 with symmetry is DISCOURAGED, use correct ibrav instead

     R & G space division:  proc/nbgrp/npool/nimage =       2
     Subspace diagonalization in iterative solution of the eigenvalue problem:
     a serial algorithm will be used


     Parallelization info
     --------------------
     sticks:   dense  smooth     PW     G-vecs:    dense   smooth      PW
     Min        1449     726    205                49228    17440    2640
     Max        1450     727    206                49229    17441    2641
     Sum        2899    1453    411                98457    34881    5281

     Using Slab Decomposition



     bravais-lattice index     =            0
     lattice parameter (alat)  =       8.2973  a.u.
     unit-cell volume          =     439.7344 (a.u.)^3
     number of atoms/cell      =            1
     number of atomic types    =            1
     number of electrons       =        10.00
     number of Kohn-Sham states=            9
     kinetic-energy cutoff     =      70.0000  Ry
     charge density cutoff     =     560.0000  Ry
     scf convergence threshold =      1.0E-07
     mixing beta               =       0.7000
     number of iterations used =            8  plain     mixing
     energy convergence thresh.=      1.0E-04
     force convergence thresh. =      1.0E-03
     Exchange-correlation= SLA  PW   PBX  PBC
                           (   1   4   3   4   0   0   0)
     nstep                     =           50


     celldm(1)=   8.297313  celldm(2)=   0.000000  celldm(3)=   0.000000
     celldm(4)=   0.000000  celldm(5)=   0.000000  celldm(6)=   0.000000

     crystal axes: (cart. coord. in units of alat)
               a(1) = (  -0.577350   0.577350   0.577350 )  
               a(2) = (   0.577350  -0.577350   0.577350 )  
               a(3) = (   0.577350   0.577350  -0.577350 )  

     reciprocal axes: (cart. coord. in units 2 pi/alat)
               b(1) = (  0.000000  0.866025  0.866025 )  
               b(2) = (  0.866025  0.000000  0.866025 )  
               b(3) = (  0.866025  0.866025  0.000000 )  


     PseudoPot. # 1 for Ba read from file:
     /home/bond/Software/qe-7.1/pseudo/Ba.pbe-spn-kjpaw_psl.1.0.0.UPF
     MD5 check sum: 7cfe25f1fe7574a4710541d5a11d6531
     Pseudo is Projector augmented-wave + core cor, Zval = 10.0
     Generated using &quot;atomic&quot; code by A. Dal Corso  v.6.2.2
     Shape of augmentation charge: PSQ
     Using radial grid of 1251 points,  7 beta functions with: 
                l(1) =   0
                l(2) =   0
                l(3) =   0
                l(4) =   1
                l(5) =   1
                l(6) =   2
                l(7) =   2
     Q(r) pseudized with 0 coefficients 


     atomic species   valence    mass     pseudopotential
        Ba            10.00   137.32700     Ba( 1.00)

     48 Sym. Ops., with inversion, found



   Cartesian axes

     site n.     atom                  positions (alat units)
         1           Ba  tau(   1) = (   0.0000000   0.0000000   0.0000000  )

     number of k points=    10  Methfessel-Paxton smearing, width (Ry)=  0.0200
                       cart. coord. in units 2pi/alat
        k(    1) = (   0.0000000   0.0000000   0.0000000), wk =   0.0160000
        k(    2) = (   0.1732051   0.1732051   0.0000000), wk =   0.1920000
        k(    3) = (   0.3464102   0.3464102   0.0000000), wk =   0.1920000
        k(    4) = (   0.3464102   0.1732051   0.1732051), wk =   0.3840000
        k(    5) = (   0.5196152   0.3464102   0.1732051), wk =   0.3840000
        k(    6) = (   0.3464102   0.3464102   0.3464102), wk =   0.1280000
        k(    7) = (   0.0000000   0.0000000   0.3464102), wk =   0.0960000
        k(    8) = (   0.0000000  -0.1732051   0.5196152), wk =   0.3840000
        k(    9) = (  -0.6928203  -0.1732051  -0.1732051), wk =   0.1280000
        k(   10) = (   0.0000000   0.0000000   0.6928203), wk =   0.0960000

     Dense  grid:    98457 G-vectors     FFT dimensions: (  64,  64,  64)

     Smooth grid:    34881 G-vectors     FFT dimensions: (  45,  45,  45)

     Estimated max dynamical RAM per process >     200.93 MB

     Estimated total dynamical RAM >     401.86 MB

     Initial potential from superposition of free atoms

     starting charge       9.9830, renormalised to      10.0000
     Starting wfcs are    5 randomized atomic wfcs +    4 random wfcs
     Checking if some PAW data can be deallocated... 

     total cpu time spent up to now is        2.4 secs

     Self-consistent Calculation

     iteration #  1     ecut=    70.00 Ry     beta= 0.70
     Davidson diagonalization with overlap
     ethr =  1.00E-02,  avg # of iterations =  7.8

     Threshold (ethr) on eigenvalues was too large:
     Diagonalizing with lowered threshold

     Davidson diagonalization with overlap
     ethr =  7.60E-06,  avg # of iterations =  8.0

     total cpu time spent up to now is        6.6 secs

     total energy              =    -436.18129100 Ry
     estimated scf accuracy    <       0.00077797 Ry

     iteration #  2     ecut=    70.00 Ry     beta= 0.70
     Davidson diagonalization with overlap
     ethr =  7.78E-06,  avg # of iterations =  1.2

     total cpu time spent up to now is        8.1 secs

     total energy              =    -436.18139384 Ry
     estimated scf accuracy    <       0.00009137 Ry

     iteration #  3     ecut=    70.00 Ry     beta= 0.70
     Davidson diagonalization with overlap
     ethr =  9.14E-07,  avg # of iterations =  2.1

     total cpu time spent up to now is        9.9 secs

     total energy              =    -436.18140527 Ry
     estimated scf accuracy    <       0.00000273 Ry

     iteration #  4     ecut=    70.00 Ry     beta= 0.70
     Davidson diagonalization with overlap
     ethr =  2.73E-08,  avg # of iterations =  4.0

     total cpu time spent up to now is       11.7 secs

     total energy              =    -436.18140628 Ry
     estimated scf accuracy    <       0.00000069 Ry

     iteration #  5     ecut=    70.00 Ry     beta= 0.70
     Davidson diagonalization with overlap
     ethr =  6.87E-09,  avg # of iterations =  2.2

     total cpu time spent up to now is       13.4 secs

     total energy              =    -436.18140637 Ry
     estimated scf accuracy    <       0.00000011 Ry

     iteration #  6     ecut=    70.00 Ry     beta= 0.70
     Davidson diagonalization with overlap
     ethr =  1.05E-09,  avg # of iterations =  1.9

     total cpu time spent up to now is       14.9 secs

     End of self-consistent calculation

          k = 0.0000 0.0000 0.0000 (  4321 PWs)   bands (ev):

   -23.3430  -8.3063  -8.3063  -8.3063   2.8769   7.4002   7.4002   7.4003
     8.7556

          k = 0.1732 0.1732 0.0000 (  4326 PWs)   bands (ev):

   -23.3302  -8.4548  -8.3530  -8.3071   3.5411   6.9307   6.9507   8.1096
     8.4413

          k = 0.3464 0.3464 0.0000 (  4348 PWs)   bands (ev):

   -23.3094  -8.6804  -8.4268  -8.3084   4.6203   6.3811   6.5728   8.7468
     9.1165

          k = 0.3464 0.1732 0.1732 (  4354 PWs)   bands (ev):

   -23.3134  -8.6052  -8.4185  -8.3390   4.5708   6.2870   6.5600   8.3719
     9.1961

          k = 0.5196 0.3464 0.1732 (  4346 PWs)   bands (ev):

   -23.3029  -8.6675  -8.4971  -8.3480   5.2398   6.2329   6.3773   8.5949
     9.2891

          k = 0.3464 0.3464 0.3464 (  4345 PWs)   bands (ev):

   -23.3051  -8.6154  -8.4446  -8.4446   5.7326   6.0726   6.0726   9.2659
     9.9699

          k = 0.0000 0.0000 0.3464 (  4345 PWs)   bands (ev):

   -23.3185  -8.4760  -8.4024  -8.4024   4.1378   6.8749   7.2877   7.2877
     8.0945

          k = 0.0000-0.1732 0.5196 (  4347 PWs)   bands (ev):

   -23.2995  -8.6439  -8.4804  -8.4124   5.1528   6.0053   7.0523   7.6507
     9.2590

          k =-0.6928-0.1732-0.1732 (  4352 PWs)   bands (ev):

   -23.2909  -8.6044  -8.6044  -8.4337   5.6590   5.6590   6.6035   8.8699
     8.8700

          k = 0.0000 0.0000 0.6928 (  4368 PWs)   bands (ev):

   -23.2835  -8.5916  -8.5646  -8.5646   5.2861   5.3124   8.5590   8.5591
     8.9853

     the Fermi energy is     5.6578 ev

!    total energy              =    -436.18140637 Ry
     total all-electron energy =    -16271.274522 Ry
     estimated scf accuracy    <          9.7E-09 Ry
     smearing contrib. (-TS)   =       0.00071838 Ry
     internal energy E=F+TS    =    -436.18212475 Ry

     The total energy is F=E-TS. E is the sum of the following terms:
     one-electron contribution =     -11.97632255 Ry
     hartree contribution      =       8.87460391 Ry
     xc contribution           =     -20.14754173 Ry
     ewald contribution        =     -37.98420920 Ry
     one-center paw contrib.   =    -374.94865518 Ry

     convergence has been achieved in   6 iterations

     Forces acting on atoms (cartesian axes, Ry/au):

     atom    1 type  1   force =     0.00000000    0.00000000    0.00000000

     Total force =     0.000000     Total SCF correction =     0.000000


     Computing stress (Cartesian axis) and pressure

          total   stress  (Ry/bohr**3)                   (kbar)     P=       -3.39
  -0.00002304   0.00000000   0.00000000           -3.39        0.00        0.00
   0.00000000  -0.00002304   0.00000000            0.00       -3.39        0.00
   0.00000000   0.00000000  -0.00002304            0.00        0.00       -3.39


     BFGS Geometry Optimization
     Energy error            =      0.0E+00 Ry
     Gradient error          =      0.0E+00 Ry/Bohr

     bfgs converged in   1 scf cycles and   0 bfgs steps
     (criteria: energy <  1.0E-04 Ry, force <  1.0E-03 Ry/Bohr)

     End of BFGS Geometry Optimization

     Final energy             =    -436.1814063696 Ry
Begin final coordinates

ATOMIC_POSITIONS (angstrom)
Ba            0.0000000000        0.0000000000        0.0000000000
End final coordinates



     init_run     :      1.73s CPU      1.98s WALL (       1 calls)
     electrons    :     10.91s CPU     12.52s WALL (       1 calls)
     forces       :      0.51s CPU      0.66s WALL (       1 calls)
     stress       :      2.52s CPU      2.84s WALL (       1 calls)

     Called by init_run:
     wfcinit      :      0.29s CPU      0.32s WALL (       1 calls)
     potinit      :      0.40s CPU      0.45s WALL (       1 calls)
     hinit0       :      0.76s CPU      0.84s WALL (       1 calls)

     Called by electrons:
     c_bands      :      5.56s CPU      5.92s WALL (       7 calls)
     sum_band     :      2.47s CPU      3.13s WALL (       7 calls)
     v_of_rho     :      0.72s CPU      0.81s WALL (       7 calls)
     newd         :      1.34s CPU      1.88s WALL (       7 calls)
     PAW_pot      :      1.13s CPU      1.20s WALL (       7 calls)
     mix_rho      :      0.07s CPU      0.08s WALL (       7 calls)

     Called by c_bands:
     init_us_2    :      0.18s CPU      0.20s WALL (     170 calls)
     init_us_2:cp :      0.18s CPU      0.20s WALL (     170 calls)
     cegterg      :      5.28s CPU      5.61s WALL (      70 calls)

     Called by *egterg:
     cdiaghg      :      0.07s CPU      0.08s WALL (     332 calls)
     h_psi        :      4.88s CPU      5.19s WALL (     352 calls)
     s_psi        :      0.09s CPU      0.10s WALL (     352 calls)
     g_psi        :      0.02s CPU      0.03s WALL (     272 calls)

     Called by h_psi:
     h_psi:calbec :      0.13s CPU      0.13s WALL (     352 calls)
     vloc_psi     :      4.62s CPU      4.92s WALL (     352 calls)
     add_vuspsi   :      0.11s CPU      0.12s WALL (     352 calls)

     General routines
     calbec       :      0.18s CPU      0.20s WALL (     472 calls)
     fft          :      0.72s CPU      0.79s WALL (     115 calls)
     ffts         :      0.12s CPU      0.12s WALL (      14 calls)
     fftw         :      4.84s CPU      5.16s WALL (    4502 calls)
     interpolate  :      0.14s CPU      0.15s WALL (       7 calls)

     Parallel routines

     PWSCF        :     16.09s CPU     18.45s WALL


   This run was terminated on:   6:22:39   6May2024            

=------------------------------------------------------------------------------=
   JOB DONE.
=------------------------------------------------------------------------------=
