
     Program PWSCF v.7.1 starts on  6May2024 at 23: 0:13 

     This program is part of the open-source Quantum ESPRESSO suite
     for quantum simulation of materials; please cite
         "P. Giannozzi et al., J. Phys.:Condens. Matter 21 395502 (2009);
         "P. Giannozzi et al., J. Phys.:Condens. Matter 29 465901 (2017);
         "P. Giannozzi et al., J. Chem. Phys. 152 154105 (2020);
          URL http://www.quantum-espresso.org", 
     in publications or presentations arising from this work. More details at
     http://www.quantum-espresso.org/quote

     Parallel version (MPI), running on     2 processors

     MPI processes distributed on     1 nodes
     13578 MiB available memory on the printing compute node when the environment starts

     Waiting for input...
     Reading input from standard input
Warning: card &CELL ignored
Warning: card / ignored

     Current dimensions of program PWSCF are:
     Max number of different atomic species (ntypx) = 10
     Max number of k-points (npk) =  40000
     Max angular momentum in pseudopotentials (lmaxx) =  4
     file Ba.pbe-spn-kjpaw_psl.1.0.0.UPF: wavefunction(s)  5S 6S renormalized
     file Bi.pbe-dn-kjpaw_psl.1.0.0.UPF: wavefunction(s)  6P 5D renormalized
     file F.pbe-n-kjpaw_psl.1.0.0.UPF: wavefunction(s)  2S 2P renormalized
     file O.pbe-n-kjpaw_psl.1.0.0.UPF: wavefunction(s)  2S 2P renormalized
     Message from routine setup:
     using ibrav=0 with symmetry is DISCOURAGED, use correct ibrav instead

     R & G space division:  proc/nbgrp/npool/nimage =       2
     Subspace diagonalization in iterative solution of the eigenvalue problem:
     a serial algorithm will be used


     Parallelization info
     --------------------
     sticks:   dense  smooth     PW     G-vecs:    dense   smooth      PW
     Min        1694     846    240                74046    26149    3904
     Max        1695     847    241                74047    26150    3905
     Sum        3389    1693    481               148093    52299    7809

     Using Slab Decomposition



     bravais-lattice index     =            0
     lattice parameter (alat)  =       8.7116  a.u.
     unit-cell volume          =     661.1490 (a.u.)^3
     number of atoms/cell      =            5
     number of atomic types    =            4
     number of electrons       =        44.00
     number of Kohn-Sham states=           26
     kinetic-energy cutoff     =      70.0000  Ry
     charge density cutoff     =     560.0000  Ry
     scf convergence threshold =      1.0E-07
     mixing beta               =       0.7000
     number of iterations used =            8  plain     mixing
     energy convergence thresh.=      1.0E-04
     force convergence thresh. =      1.0E-03
     Exchange-correlation= SLA  PW   PBX  PBC
                           (   1   4   3   4   0   0   0)
     nstep                     =           50


     celldm(1)=   8.711637  celldm(2)=   0.000000  celldm(3)=   0.000000
     celldm(4)=   0.000000  celldm(5)=   0.000000  celldm(6)=   0.000000

     crystal axes: (cart. coord. in units of alat)
               a(1) = (   1.000000   0.000000   0.000000 )  
               a(2) = (   0.000000   1.000000   0.000000 )  
               a(3) = (   0.000000   0.000000   1.000000 )  

     reciprocal axes: (cart. coord. in units 2 pi/alat)
               b(1) = (  1.000000  0.000000  0.000000 )  
               b(2) = (  0.000000  1.000000  0.000000 )  
               b(3) = (  0.000000  0.000000  1.000000 )  


     PseudoPot. # 1 for Ba read from file:
     /home/bond/Software/qe-7.1/pseudo/Ba.pbe-spn-kjpaw_psl.1.0.0.UPF
     MD5 check sum: 7cfe25f1fe7574a4710541d5a11d6531
     Pseudo is Projector augmented-wave + core cor, Zval = 10.0
     Generated using &quot;atomic&quot; code by A. Dal Corso  v.6.2.2
     Shape of augmentation charge: PSQ
     Using radial grid of 1251 points,  7 beta functions with: 
                l(1) =   0
                l(2) =   0
                l(3) =   0
                l(4) =   1
                l(5) =   1
                l(6) =   2
                l(7) =   2
     Q(r) pseudized with 0 coefficients 


     PseudoPot. # 2 for Bi read from file:
     /home/bond/Software/qe-7.1/pseudo/Bi.pbe-dn-kjpaw_psl.1.0.0.UPF
     MD5 check sum: 266ded784ae3bc462508ed03f0f37963
     Pseudo is Projector augmented-wave + core cor, Zval = 15.0
     Generated using &quot;atomic&quot; code by A. Dal Corso  v.6.2.2
     Shape of augmentation charge: PSQ
     Using radial grid of 1283 points,  6 beta functions with: 
                l(1) =   0
                l(2) =   0
                l(3) =   1
                l(4) =   1
                l(5) =   2
                l(6) =   2
     Q(r) pseudized with 0 coefficients 


     PseudoPot. # 3 for F  read from file:
     /home/bond/Software/qe-7.1/pseudo/F.pbe-n-kjpaw_psl.1.0.0.UPF
     MD5 check sum: 66d718ea72839a4268ab2a9540e8cdd4
     Pseudo is Projector augmented-wave + core cor, Zval =  7.0
     Generated using &quot;atomic&quot; code by A. Dal Corso  v.6.3
     Shape of augmentation charge: PSQ
     Using radial grid of 1105 points,  4 beta functions with: 
                l(1) =   0
                l(2) =   0
                l(3) =   1
                l(4) =   1
     Q(r) pseudized with 0 coefficients 


     PseudoPot. # 4 for O  read from file:
     /home/bond/Software/qe-7.1/pseudo/O.pbe-n-kjpaw_psl.1.0.0.UPF
     MD5 check sum: e99d9cef9b487d1ca56f5b95ecd0fd7a
     Pseudo is Projector augmented-wave + core cor, Zval =  6.0
     Generated using &quot;atomic&quot; code by A. Dal Corso  v.6.3
     Shape of augmentation charge: PSQ
     Using radial grid of 1095 points,  4 beta functions with: 
                l(1) =   0
                l(2) =   0
                l(3) =   1
                l(4) =   1
     Q(r) pseudized with 0 coefficients 


     atomic species   valence    mass     pseudopotential
        Ba            10.00   137.32700     Ba( 1.00)
        Bi            15.00   208.98040     Bi( 1.00)
        F              7.00    18.99840     F ( 1.00)
        O              6.00    15.99900     O ( 1.00)

     16 Sym. Ops., with inversion, found



   Cartesian axes

     site n.     atom                  positions (alat units)
         1           Ba  tau(   1) = (   0.5000000   0.5000000   0.5000000  )
         2           Bi  tau(   2) = (   0.0000000   0.0000000   0.0000000  )
         3           O   tau(   3) = (   0.0000000   0.0000000   0.5000000  )
         4           O   tau(   4) = (   0.5000000   0.0000000   0.0000000  )
         5           F   tau(   5) = (   0.0000000   0.5000000   0.0000000  )

     number of k points=    18  Gaussian smearing, width (Ry)=  0.0200
                       cart. coord. in units 2pi/alat
        k(    1) = (   0.0000000   0.0000000   0.0000000), wk =   0.0160000
        k(    2) = (   0.0000000   0.0000000   0.2000000), wk =   0.0640000
        k(    3) = (   0.0000000   0.0000000   0.4000000), wk =   0.0640000
        k(    4) = (   0.0000000   0.2000000   0.2000000), wk =   0.1280000
        k(    5) = (   0.0000000   0.2000000   0.4000000), wk =   0.1280000
        k(    6) = (   0.0000000   0.4000000   0.4000000), wk =   0.1280000
        k(    7) = (   0.2000000   0.2000000   0.2000000), wk =   0.1280000
        k(    8) = (   0.2000000   0.2000000   0.4000000), wk =   0.2560000
        k(    9) = (   0.2000000   0.4000000   0.4000000), wk =   0.2560000
        k(   10) = (   0.4000000   0.4000000   0.4000000), wk =   0.1280000
        k(   11) = (   0.0000000   0.2000000   0.0000000), wk =   0.0320000
        k(   12) = (   0.0000000   0.4000000   0.0000000), wk =   0.0320000
        k(   13) = (   0.2000000   0.0000000   0.2000000), wk =   0.0640000
        k(   14) = (   0.2000000   0.4000000   0.0000000), wk =   0.1280000
        k(   15) = (   0.4000000   0.0000000   0.2000000), wk =   0.1280000
        k(   16) = (   0.4000000   0.0000000   0.4000000), wk =   0.0640000
        k(   17) = (   0.2000000   0.4000000   0.2000000), wk =   0.1280000
        k(   18) = (   0.4000000   0.2000000   0.4000000), wk =   0.1280000

     Dense  grid:   148093 G-vectors     FFT dimensions: (  72,  72,  72)

     Smooth grid:    52299 G-vectors     FFT dimensions: (  48,  48,  48)

     Estimated max dynamical RAM per process >     336.40 MB

     Estimated total dynamical RAM >     672.80 MB

     Initial potential from superposition of free atoms

     starting charge      43.9822, renormalised to      44.0000
     Starting wfcs are   26 randomized atomic wfcs
     Checking if some PAW data can be deallocated... 

     total cpu time spent up to now is       10.5 secs

     Self-consistent Calculation

     iteration #  1     ecut=    70.00 Ry     beta= 0.70
     Davidson diagonalization with overlap
     ethr =  1.00E-02,  avg # of iterations =  2.6

     total cpu time spent up to now is       21.4 secs

     total energy              =   -1484.41375302 Ry
     estimated scf accuracy    <       1.83516331 Ry

     iteration #  2     ecut=    70.00 Ry     beta= 0.70
     Davidson diagonalization with overlap
     ethr =  4.17E-03,  avg # of iterations =  7.7

     total cpu time spent up to now is       37.7 secs

     total energy              =   -1483.80400182 Ry
     estimated scf accuracy    <      10.00223500 Ry

     iteration #  3     ecut=    70.00 Ry     beta= 0.70
     Davidson diagonalization with overlap
     ethr =  4.17E-03,  avg # of iterations =  5.7

     total cpu time spent up to now is       52.6 secs

     total energy              =   -1485.51767811 Ry
     estimated scf accuracy    <       0.24698611 Ry

     iteration #  4     ecut=    70.00 Ry     beta= 0.70
     Davidson diagonalization with overlap
     ethr =  5.61E-04,  avg # of iterations =  2.5

     total cpu time spent up to now is       64.1 secs

     total energy              =   -1485.55042288 Ry
     estimated scf accuracy    <       0.05079980 Ry

     iteration #  5     ecut=    70.00 Ry     beta= 0.70
     Davidson diagonalization with overlap
     ethr =  1.15E-04,  avg # of iterations =  5.3

     total cpu time spent up to now is       76.7 secs

     total energy              =   -1485.54175025 Ry
     estimated scf accuracy    <       0.02742577 Ry

     iteration #  6     ecut=    70.00 Ry     beta= 0.70
     Davidson diagonalization with overlap
     ethr =  6.23E-05,  avg # of iterations =  7.7

     total cpu time spent up to now is       90.3 secs

     total energy              =   -1485.54802177 Ry
     estimated scf accuracy    <       0.00086389 Ry

     iteration #  7     ecut=    70.00 Ry     beta= 0.70
     Davidson diagonalization with overlap
     c_bands:  1 eigenvalues not converged
     c_bands:  1 eigenvalues not converged
     c_bands:  1 eigenvalues not converged
     c_bands:  1 eigenvalues not converged
     c_bands:  1 eigenvalues not converged
     ethr =  1.96E-06,  avg # of iterations = 13.7

     total cpu time spent up to now is      109.2 secs

     total energy              =   -1485.54864970 Ry
     estimated scf accuracy    <       0.00021386 Ry

     iteration #  8     ecut=    70.00 Ry     beta= 0.70
     Davidson diagonalization with overlap
     c_bands:  1 eigenvalues not converged
     ethr =  4.86E-07,  avg # of iterations =  5.3

     total cpu time spent up to now is      121.3 secs

     total energy              =   -1485.54867697 Ry
     estimated scf accuracy    <       0.00001817 Ry

     iteration #  9     ecut=    70.00 Ry     beta= 0.70
     Davidson diagonalization with overlap
     ethr =  4.13E-08,  avg # of iterations =  5.8

     total cpu time spent up to now is      135.7 secs

     total energy              =   -1485.54869126 Ry
     estimated scf accuracy    <       0.00001058 Ry

     iteration # 10     ecut=    70.00 Ry     beta= 0.70
     Davidson diagonalization with overlap
     ethr =  2.40E-08,  avg # of iterations =  1.6

     total cpu time spent up to now is      146.0 secs

     total energy              =   -1485.54869050 Ry
     estimated scf accuracy    <       0.00000414 Ry

     iteration # 11     ecut=    70.00 Ry     beta= 0.70
     Davidson diagonalization with overlap
     ethr =  9.40E-09,  avg # of iterations =  4.6

     total cpu time spent up to now is      158.2 secs

     total energy              =   -1485.54869161 Ry
     estimated scf accuracy    <       0.00000014 Ry

     iteration # 12     ecut=    70.00 Ry     beta= 0.70
     Davidson diagonalization with overlap
     ethr =  3.17E-10,  avg # of iterations =  5.2

     total cpu time spent up to now is      172.6 secs

     End of self-consistent calculation

          k = 0.0000 0.0000 0.0000 (  6619 PWs)   bands (ev):

   -19.4235 -16.1069 -13.7819 -13.7761 -13.7761 -13.5833 -13.4889  -8.4363
    -7.2468  -4.5452  -4.5452  -4.3597   0.9937   1.1068   2.6551   2.6551
     4.3678   4.3678   6.5227   6.9252   7.1868   7.1868  11.0279  11.0817
    11.9165  12.8468

          k = 0.0000 0.0000 0.2000 (  6527 PWs)   bands (ev):

   -19.4184 -16.1101 -13.7776 -13.7759 -13.7578 -13.5848 -13.4761  -8.3687
    -7.4106  -4.5376  -4.5305  -4.3461   0.2640   1.1077   2.6012   2.7764
     4.4249   5.3780   6.4960   6.8470   7.1134   7.1521  11.2489  11.6213
    12.3732  12.8865

          k = 0.0000 0.0000 0.4000 (  6528 PWs)   bands (ev):

   -19.4101 -16.1155 -13.7802 -13.7758 -13.7236 -13.5874 -13.4493  -8.1502
    -7.7864  -4.5287  -4.5065  -4.3238  -0.4344   1.1082   2.5138   2.7421
     4.5253   6.2027   6.3956   6.7976   6.9899   8.1262  11.3647  12.5029
    12.9403  13.0831

          k = 0.0000 0.2000 0.2000 (  6565 PWs)   bands (ev):

   -19.4149 -15.9986 -13.7795 -13.7779 -13.7586 -13.6190 -13.5847  -8.4364
    -7.4043  -4.5494  -4.5200  -4.3295  -0.5791   2.4071   2.7097   2.8437
     4.2824   5.2945   6.3422   6.7097   7.0125   7.1741  11.5524  11.8976
    12.7471  12.9296

          k = 0.0000 0.2000 0.4000 (  6526 PWs)   bands (ev):

   -19.4070 -16.0041 -13.7819 -13.7778 -13.7307 -13.5880 -13.5872  -8.1829
    -7.7883  -4.5678  -4.4984  -4.3364  -1.1171   2.2872   2.6291   2.7561
     4.4031   6.2019   6.4864   6.6851   6.8642   8.1995  11.6803  12.5702
    12.9291  12.9553

          k = 0.0000 0.4000 0.4000 (  6538 PWs)   bands (ev):

   -19.4018 -15.7885 -13.8851 -13.7846 -13.7809 -13.7057 -13.5870  -8.2343
    -7.7909  -4.6270  -4.4853  -4.3597  -1.6634   2.7756   2.8607   3.8205
     4.1593   6.1756   6.5248   6.5719   6.6765   8.4085  11.4842  12.3707
    12.8480  12.9865

          k = 0.2000 0.2000 0.2000 (  6559 PWs)   bands (ev):

   -19.4106 -16.0004 -13.7795 -13.7794 -13.7306 -13.6106 -13.5863  -8.3683
    -7.5297  -4.5550  -4.5382  -4.3287  -1.0397   2.2215   2.7852   2.8723
     4.9312   5.6300   6.4317   6.6777   6.9888   7.2932  11.8488  11.9800
    12.5993  12.8261

          k = 0.2000 0.2000 0.4000 (  6514 PWs)   bands (ev):

   -19.4035 -16.0032 -13.7819 -13.7794 -13.6953 -13.5887 -13.5855  -8.1592
    -7.8367  -4.5801  -4.5409  -4.3385  -1.6066   2.1473   2.7856   2.8564
     5.3283   6.0524   6.4722   6.6446   7.2337   8.2842  11.8350  11.8509
    12.8780  13.0254

          k = 0.2000 0.4000 0.4000 (  6520 PWs)   bands (ev):

   -19.3985 -15.7875 -13.8711 -13.7849 -13.7826 -13.6842 -13.5887  -8.1889
    -7.8231  -4.6386  -4.5530  -4.3896  -2.1279   2.8268   2.9348   3.5825
     5.2585   6.2261   6.4260   6.6493   7.1329   8.4898  10.7405  11.9882
    12.4970  12.9988

          k = 0.4000 0.4000 0.4000 (  6560 PWs)   bands (ev):

   -19.3931 -15.7857 -13.8544 -13.7856 -13.7853 -13.6424 -13.5915  -8.0680
    -7.9236  -4.6600  -4.6507  -4.4431  -2.7370   2.9373   2.9950   3.5216
     6.1933   6.5980   6.6740   6.7988   7.6179   9.1303   9.9425  11.1791
    11.4718  13.8980

          k = 0.0000 0.2000 0.0000 (  6527 PWs)   bands (ev):

   -19.4198 -15.9953 -13.7817 -13.7779 -13.7779 -13.6314 -13.5831  -8.5192
    -7.2435  -4.5331  -4.5331  -4.3312  -0.1376   2.7584   2.7592   2.7592
     4.2152   4.2152   6.2280   6.7223   7.0984   7.0984  11.2957  11.5196
    12.6214  12.9140

          k = 0.0000 0.4000 0.0000 (  6528 PWs)   bands (ev):

   -19.4137 -15.7792 -13.8991 -13.7814 -13.7812 -13.7812 -13.5830  -8.6454
    -7.2382  -4.5135  -4.5135  -4.2913  -0.7030   2.9869   2.9869   3.9101
     3.9101   4.4832   5.6262   6.4449   6.9711   6.9711  11.4411  12.2331
    13.0323  13.4027

          k = 0.2000 0.0000 0.2000 (  6565 PWs)   bands (ev):

   -19.4139 -16.1118 -13.7776 -13.7775 -13.7308 -13.5863 -13.4655  -8.3156
    -7.5411  -4.5461  -4.5215  -4.3342  -0.3691   1.1161   2.7169   2.8044
     5.0451   5.6855   6.4950   6.7423   6.9451   7.3287  11.7852  11.7881
    12.6603  12.8074

          k = 0.2000 0.4000 0.0000 (  6526 PWs)   bands (ev):

   -19.4092 -15.7828 -13.8920 -13.7825 -13.7810 -13.7546 -13.5846  -8.5406
    -7.3939  -4.5586  -4.5028  -4.3171  -1.1372   2.9111   2.9388   3.8280
     3.9983   5.3725   5.9314   6.5252   6.8656   7.2116  11.5335  12.4095
    13.0126  13.1941

          k = 0.4000 0.0000 0.2000 (  6526 PWs)   bands (ev):

   -19.4066 -16.1146 -13.7801 -13.7774 -13.6914 -13.5887 -13.4421  -8.1405
    -7.8448  -4.5445  -4.5241  -4.3149  -1.0430   1.1292   2.7261   2.8188
     5.3930   5.9682   6.4177   6.6676   7.2692   8.2249  11.8066  12.4750
    12.7959  13.0458

          k = 0.4000 0.0000 0.4000 (  6538 PWs)   bands (ev):

   -19.4008 -16.1133 -13.7799 -13.7799 -13.6426 -13.5908 -13.4255  -8.0908
    -7.9770  -4.5654  -4.5559  -4.3003  -1.7361   1.1635   2.8760   2.9243
     5.6852   6.4476   6.4801   6.6737   7.6141   8.9836  12.0862  12.2668
    12.6870  12.9631

          k = 0.2000 0.4000 0.2000 (  6514 PWs)   bands (ev):

   -19.4051 -15.7845 -13.8819 -13.7828 -13.7822 -13.7304 -13.5861  -8.4501
    -7.5111  -4.5695  -4.5439  -4.3440  -1.5768   2.8357   2.9942   3.6157
     4.7479   5.7008   6.1564   6.5972   7.1154   7.1918  11.2359  12.5464
    12.9727  13.1699

          k = 0.4000 0.2000 0.4000 (  6520 PWs)   bands (ev):

   -19.3979 -16.0017 -13.7820 -13.7820 -13.6425 -13.5911 -13.5756  -8.0822
    -7.9569  -4.6013  -4.5945  -4.3534  -2.2259   2.1058   2.9024   2.9511
     5.8698   6.5280   6.5508   6.7100   7.6235   9.0044  11.1874  11.7528
    12.0430  13.3830

     the Fermi energy is     9.5440 ev

!    total energy              =   -1485.54869175 Ry
     total all-electron energy =    -59834.206305 Ry
     estimated scf accuracy    <       0.00000007 Ry
     smearing contrib. (-TS)   =      -0.00017556 Ry
     internal energy E=F+TS    =   -1485.54851619 Ry

     The total energy is F=E-TS. E is the sum of the following terms:
     one-electron contribution =    -112.66569922 Ry
     hartree contribution      =      86.93170766 Ry
     xc contribution           =     -77.31497619 Ry
     ewald contribution        =    -220.60838099 Ry
     one-center paw contrib.   =   -1161.89116744 Ry

     convergence has been achieved in  12 iterations

     Forces acting on atoms (cartesian axes, Ry/au):

     atom    1 type  1   force =     0.00000000    0.00000000    0.00000000
     atom    2 type  2   force =     0.00000000    0.00000000    0.00000000
     atom    3 type  4   force =     0.00000000    0.00000000    0.00000000
     atom    4 type  4   force =     0.00000000    0.00000000    0.00000000
     atom    5 type  3   force =     0.00000000    0.00000000    0.00000000

     Total force =     0.000000     Total SCF correction =     0.000000


     Computing stress (Cartesian axis) and pressure

          total   stress  (Ry/bohr**3)                   (kbar)     P=       -4.57
  -0.00002313   0.00000000   0.00000000           -3.40        0.00        0.00
   0.00000000  -0.00004701   0.00000000            0.00       -6.91        0.00
   0.00000000   0.00000000  -0.00002313            0.00        0.00       -3.40


     BFGS Geometry Optimization
     Energy error            =      0.0E+00 Ry
     Gradient error          =      0.0E+00 Ry/Bohr

     bfgs converged in   1 scf cycles and   0 bfgs steps
     (criteria: energy <  1.0E-04 Ry, force <  1.0E-03 Ry/Bohr)

     End of BFGS Geometry Optimization

     Final energy             =   -1485.5486917490 Ry
Begin final coordinates

ATOMIC_POSITIONS (angstrom)
Ba            2.3050000000        2.3050000000        2.3050000000
Bi            0.0000000000        0.0000000000        0.0000000000
O             0.0000000000        0.0000000000        2.3050000000
O             2.3050000000        0.0000000000        0.0000000000
F             0.0000000000        2.3050000000        0.0000000000
End final coordinates



     init_run     :      5.56s CPU      9.07s WALL (       1 calls)
     electrons    :    116.72s CPU    162.16s WALL (       1 calls)
     forces       :      2.66s CPU      2.93s WALL (       1 calls)
     stress       :     15.13s CPU     16.31s WALL (       1 calls)

     Called by init_run:
     wfcinit      :      1.67s CPU      2.80s WALL (       1 calls)
     potinit      :      1.14s CPU      2.02s WALL (       1 calls)
     hinit0       :      2.02s CPU      2.96s WALL (       1 calls)

     Called by electrons:
     c_bands      :     78.81s CPU    105.09s WALL (      12 calls)
     sum_band     :     20.88s CPU     30.80s WALL (      12 calls)
     v_of_rho     :      2.56s CPU      3.54s WALL (      13 calls)
     newd         :      8.13s CPU     14.38s WALL (      13 calls)
     PAW_pot      :      7.05s CPU      9.91s WALL (      13 calls)
     mix_rho      :      0.33s CPU      0.48s WALL (      12 calls)

     Called by c_bands:
     init_us_2    :      1.51s CPU      2.04s WALL (     486 calls)
     init_us_2:cp :      1.51s CPU      2.04s WALL (     486 calls)
     cegterg      :     75.21s CPU    100.28s WALL (     216 calls)

     Called by *egterg:
     cdiaghg      :      1.87s CPU      2.69s WALL (    1433 calls)
     h_psi        :     57.41s CPU     77.15s WALL (    1451 calls)
     s_psi        :      2.59s CPU      3.55s WALL (    1451 calls)
     g_psi        :      0.29s CPU      0.46s WALL (    1217 calls)

     Called by h_psi:
     h_psi:calbec :      3.63s CPU      4.91s WALL (    1451 calls)
     vloc_psi     :     50.71s CPU     67.91s WALL (    1451 calls)
     add_vuspsi   :      2.80s CPU      3.97s WALL (    1451 calls)

     General routines
     calbec       :      6.33s CPU      8.00s WALL (    1757 calls)
     fft          :      2.61s CPU      3.44s WALL (     192 calls)
     ffts         :      0.34s CPU      0.53s WALL (      25 calls)
     fftw         :     53.72s CPU     71.31s WALL (   38662 calls)
     interpolate  :      0.45s CPU      0.70s WALL (      13 calls)

     Parallel routines

     PWSCF        :   2m21.16s CPU   3m11.92s WALL


   This run was terminated on:  23: 3:25   6May2024            

=------------------------------------------------------------------------------=
   JOB DONE.
=------------------------------------------------------------------------------=
