
     Program PWSCF v.7.1 starts on  6May2024 at  6:13:13 

     This program is part of the open-source Quantum ESPRESSO suite
     for quantum simulation of materials; please cite
         "P. Giannozzi et al., J. Phys.:Condens. Matter 21 395502 (2009);
         "P. Giannozzi et al., J. Phys.:Condens. Matter 29 465901 (2017);
         "P. Giannozzi et al., J. Chem. Phys. 152 154105 (2020);
          URL http://www.quantum-espresso.org", 
     in publications or presentations arising from this work. More details at
     http://www.quantum-espresso.org/quote

     Parallel version (MPI), running on     2 processors

     MPI processes distributed on     1 nodes
     13531 MiB available memory on the printing compute node when the environment starts

     Waiting for input...
     Reading input from standard input
Warning: card &CELL ignored
Warning: card / ignored

     Current dimensions of program PWSCF are:
     Max number of different atomic species (ntypx) = 10
     Max number of k-points (npk) =  40000
     Max angular momentum in pseudopotentials (lmaxx) =  4
     file Bi.pbe-dn-kjpaw_psl.1.0.0.UPF: wavefunction(s)  6P 5D renormalized
     Message from routine setup:
     using ibrav=0 with symmetry is DISCOURAGED, use correct ibrav instead

     R & G space division:  proc/nbgrp/npool/nimage =       2
     Subspace diagonalization in iterative solution of the eigenvalue problem:
     a serial algorithm will be used


     Parallelization info
     --------------------
     sticks:   dense  smooth     PW     G-vecs:    dense   smooth      PW
     Min         766     380    111                22512     7947    1276
     Max         767     381    114                22513     7948    1277
     Sum        1533     761    225                45025    15895    2553

     Using Slab Decomposition



     bravais-lattice index     =            0
     lattice parameter (alat)  =       5.8582  a.u.
     unit-cell volume          =     201.0396 (a.u.)^3
     number of atoms/cell      =            1
     number of atomic types    =            1
     number of electrons       =        15.00
     number of Kohn-Sham states=           12
     kinetic-energy cutoff     =      70.0000  Ry
     charge density cutoff     =     560.0000  Ry
     scf convergence threshold =      1.0E-07
     mixing beta               =       0.7000
     number of iterations used =            8  plain     mixing
     energy convergence thresh.=      1.0E-04
     force convergence thresh. =      1.0E-03
     Exchange-correlation= SLA  PW   PBX  PBC
                           (   1   4   3   4   0   0   0)
     nstep                     =           50


     celldm(1)=   5.858151  celldm(2)=   0.000000  celldm(3)=   0.000000
     celldm(4)=   0.000000  celldm(5)=   0.000000  celldm(6)=   0.000000

     crystal axes: (cart. coord. in units of alat)
               a(1) = (   1.000000   0.000000   0.000000 )  
               a(2) = (   0.000000   1.000000   0.000000 )  
               a(3) = (   0.000000   0.000000   1.000000 )  

     reciprocal axes: (cart. coord. in units 2 pi/alat)
               b(1) = (  1.000000  0.000000  0.000000 )  
               b(2) = (  0.000000  1.000000  0.000000 )  
               b(3) = (  0.000000  0.000000  1.000000 )  


     PseudoPot. # 1 for Bi read from file:
     /home/bond/Software/qe-7.1/pseudo/Bi.pbe-dn-kjpaw_psl.1.0.0.UPF
     MD5 check sum: 266ded784ae3bc462508ed03f0f37963
     Pseudo is Projector augmented-wave + core cor, Zval = 15.0
     Generated using &quot;atomic&quot; code by A. Dal Corso  v.6.2.2
     Shape of augmentation charge: PSQ
     Using radial grid of 1283 points,  6 beta functions with: 
                l(1) =   0
                l(2) =   0
                l(3) =   1
                l(4) =   1
                l(5) =   2
                l(6) =   2
     Q(r) pseudized with 0 coefficients 


     atomic species   valence    mass     pseudopotential
        Bi            15.00   208.98040     Bi( 1.00)

     48 Sym. Ops., with inversion, found



   Cartesian axes

     site n.     atom                  positions (alat units)
         1           Bi  tau(   1) = (   0.5000000   0.5000000   0.5000000  )

     number of k points=    10  Methfessel-Paxton smearing, width (Ry)=  0.0200
                       cart. coord. in units 2pi/alat
        k(    1) = (   0.0000000   0.0000000   0.0000000), wk =   0.0160000
        k(    2) = (   0.0000000   0.0000000   0.2000000), wk =   0.0960000
        k(    3) = (   0.0000000   0.0000000   0.4000000), wk =   0.0960000
        k(    4) = (   0.0000000   0.2000000   0.2000000), wk =   0.1920000
        k(    5) = (   0.0000000   0.2000000   0.4000000), wk =   0.3840000
        k(    6) = (   0.0000000   0.4000000   0.4000000), wk =   0.1920000
        k(    7) = (   0.2000000   0.2000000   0.2000000), wk =   0.1280000
        k(    8) = (   0.2000000   0.2000000   0.4000000), wk =   0.3840000
        k(    9) = (   0.2000000   0.4000000   0.4000000), wk =   0.3840000
        k(   10) = (   0.4000000   0.4000000   0.4000000), wk =   0.1280000

     Dense  grid:    45025 G-vectors     FFT dimensions: (  45,  45,  45)

     Smooth grid:    15895 G-vectors     FFT dimensions: (  32,  32,  32)

     Estimated max dynamical RAM per process >      85.67 MB

     Estimated total dynamical RAM >     171.33 MB

     Initial potential from superposition of free atoms

     starting charge      14.9992, renormalised to      15.0000
     Starting wfcs are    9 randomized atomic wfcs +    3 random wfcs
     Checking if some PAW data can be deallocated... 

     total cpu time spent up to now is        2.1 secs

     Self-consistent Calculation

     iteration #  1     ecut=    70.00 Ry     beta= 0.70
     Davidson diagonalization with overlap
     ethr =  1.00E-02,  avg # of iterations =  6.4

     Threshold (ethr) on eigenvalues was too large:
     Diagonalizing with lowered threshold

     Davidson diagonalization with overlap
     ethr =  8.03E-06,  avg # of iterations =  6.0

     total cpu time spent up to now is        4.0 secs

     total energy              =    -906.35236310 Ry
     estimated scf accuracy    <       0.00143756 Ry

     iteration #  2     ecut=    70.00 Ry     beta= 0.70
     Davidson diagonalization with overlap
     ethr =  9.58E-06,  avg # of iterations =  1.0

     total cpu time spent up to now is        5.0 secs

     total energy              =    -906.35245321 Ry
     estimated scf accuracy    <       0.00013755 Ry

     iteration #  3     ecut=    70.00 Ry     beta= 0.70
     Davidson diagonalization with overlap
     ethr =  9.17E-07,  avg # of iterations =  1.8

     total cpu time spent up to now is        6.0 secs

     total energy              =    -906.35246443 Ry
     estimated scf accuracy    <       0.00000486 Ry

     iteration #  4     ecut=    70.00 Ry     beta= 0.70
     Davidson diagonalization with overlap
     ethr =  3.24E-08,  avg # of iterations =  2.1

     total cpu time spent up to now is        7.1 secs

     End of self-consistent calculation

          k = 0.0000 0.0000 0.0000 (  1935 PWs)   bands (ev):

   -10.8551 -10.8551 -10.3450 -10.3450 -10.3450  -1.7423  15.9630  15.9630
    15.9630  19.5201  20.7053  20.7053

          k = 0.0000 0.0000 0.2000 (  1984 PWs)   bands (ev):

   -10.8472 -10.7155 -10.3915 -10.3915 -10.3414  -1.1569  11.5723  16.6083
    16.6083  20.3920  21.1208  25.6757

          k = 0.0000 0.0000 0.4000 (  1988 PWs)   bands (ev):

   -10.8340 -10.4906 -10.4654 -10.4654 -10.3353   0.2915   7.2825  17.9930
    17.9930  21.8649  22.4023  24.7373

          k = 0.0000 0.2000 0.2000 (  1993 PWs)   bands (ev):

   -10.7762 -10.6344 -10.4434 -10.3885 -10.3861  -0.5757  12.1397  12.2267
    17.2652  21.1980  23.1335  26.1281

          k = 0.0000 0.2000 0.4000 (  1987 PWs)   bands (ev):

   -10.7434 -10.5260 -10.4604 -10.4212 -10.3803   0.8629   7.8755  13.6098
    18.6827  19.5192  22.6501  25.1412

          k = 0.0000 0.4000 0.4000 (  1993 PWs)   bands (ev):

   -10.6596 -10.6219 -10.4527 -10.4518 -10.2444   2.3008   9.1414   9.2624
    15.9908  20.1630  23.9829  25.5560

          k = 0.2000 0.2000 0.2000 (  1974 PWs)   bands (ev):

   -10.6279 -10.6279 -10.4420 -10.4363 -10.4363   0.0025  12.7221  12.8326
    12.8326  23.2078  24.0172  24.0172

          k = 0.2000 0.2000 0.4000 (  1986 PWs)   bands (ev):

   -10.6168 -10.5227 -10.5170 -10.4315 -10.3854   1.4338   8.4678  14.1916
    14.2701  19.6584  20.5900  25.3632

          k = 0.2000 0.4000 0.4000 (  1993 PWs)   bands (ev):

   -10.6144 -10.5115 -10.5096 -10.4980 -10.2406   2.8703   9.7293   9.8555
    15.6673  16.5289  21.5478  21.9236

          k = 0.4000 0.4000 0.4000 (  1983 PWs)   bands (ev):

   -10.6040 -10.6009 -10.6009 -10.2348 -10.2348   4.3304  10.9854  10.9854
    11.3112  17.4203  18.6014  18.6014

     the Fermi energy is    12.7271 ev

!    total energy              =    -906.35246564 Ry
     total all-electron energy =    -43061.810462 Ry
     estimated scf accuracy    <       0.00000005 Ry
     smearing contrib. (-TS)   =      -0.00064615 Ry
     internal energy E=F+TS    =    -906.35181948 Ry

     The total energy is F=E-TS. E is the sum of the following terms:
     one-electron contribution =     -40.92855502 Ry
     hartree contribution      =      32.72788115 Ry
     xc contribution           =     -32.59455175 Ry
     ewald contribution        =    -108.97498791 Ry
     one-center paw contrib.   =    -756.58160595 Ry

     convergence has been achieved in   4 iterations

     Forces acting on atoms (cartesian axes, Ry/au):

     atom    1 type  1   force =     0.00000000    0.00000000    0.00000000

     Total force =     0.000000     Total SCF correction =     0.000000


     Computing stress (Cartesian axis) and pressure

          total   stress  (Ry/bohr**3)                   (kbar)     P=      109.13
   0.00074187   0.00000000   0.00000000          109.13        0.00        0.00
   0.00000000   0.00074187   0.00000000            0.00      109.13        0.00
   0.00000000   0.00000000   0.00074187            0.00        0.00      109.13


     BFGS Geometry Optimization
     Energy error            =      0.0E+00 Ry
     Gradient error          =      0.0E+00 Ry/Bohr

     bfgs converged in   1 scf cycles and   0 bfgs steps
     (criteria: energy <  1.0E-04 Ry, force <  1.0E-03 Ry/Bohr)

     End of BFGS Geometry Optimization

     Final energy             =    -906.3524656362 Ry
Begin final coordinates

ATOMIC_POSITIONS (angstrom)
Bi            1.5500000000        1.5500000000        1.5500000000
End final coordinates



     init_run     :      1.26s CPU      1.63s WALL (       1 calls)
     electrons    :      3.54s CPU      4.91s WALL (       1 calls)
     forces       :      0.32s CPU      0.38s WALL (       1 calls)
     stress       :      1.44s CPU      1.64s WALL (       1 calls)

     Called by init_run:
     wfcinit      :      0.12s CPU      0.13s WALL (       1 calls)
     potinit      :      0.45s CPU      0.52s WALL (       1 calls)
     hinit0       :      0.51s CPU      0.73s WALL (       1 calls)

     Called by electrons:
     c_bands      :      1.37s CPU      1.65s WALL (       5 calls)
     sum_band     :      0.78s CPU      1.20s WALL (       5 calls)
     v_of_rho     :      0.27s CPU      0.37s WALL (       5 calls)
     newd         :      0.50s CPU      0.84s WALL (       5 calls)
     PAW_pot      :      1.03s CPU      1.33s WALL (       5 calls)
     mix_rho      :      0.02s CPU      0.02s WALL (       5 calls)

     Called by c_bands:
     init_us_2    :      0.07s CPU      0.07s WALL (     130 calls)
     init_us_2:cp :      0.06s CPU      0.07s WALL (     130 calls)
     cegterg      :      1.27s CPU      1.53s WALL (      50 calls)

     Called by *egterg:
     cdiaghg      :      0.07s CPU      0.07s WALL (     213 calls)
     h_psi        :      0.96s CPU      1.14s WALL (     233 calls)
     s_psi        :      0.03s CPU      0.04s WALL (     233 calls)
     g_psi        :      0.01s CPU      0.01s WALL (     173 calls)

     Called by h_psi:
     h_psi:calbec :      0.06s CPU      0.07s WALL (     233 calls)
     vloc_psi     :      0.86s CPU      1.02s WALL (     233 calls)
     add_vuspsi   :      0.03s CPU      0.03s WALL (     233 calls)

     General routines
     calbec       :      0.11s CPU      0.14s WALL (     333 calls)
     fft          :      0.38s CPU      0.51s WALL (      89 calls)
     ffts         :      0.13s CPU      0.14s WALL (      10 calls)
     fftw         :      0.84s CPU      1.04s WALL (    4048 calls)
     interpolate  :      0.14s CPU      0.17s WALL (       5 calls)

     Parallel routines

     PWSCF        :      6.96s CPU      9.09s WALL


   This run was terminated on:   6:13:22   6May2024            

=------------------------------------------------------------------------------=
   JOB DONE.
=------------------------------------------------------------------------------=
