
     Program PWSCF v.7.1 starts on  6May2024 at  2:43:10 

     This program is part of the open-source Quantum ESPRESSO suite
     for quantum simulation of materials; please cite
         "P. Giannozzi et al., J. Phys.:Condens. Matter 21 395502 (2009);
         "P. Giannozzi et al., J. Phys.:Condens. Matter 29 465901 (2017);
         "P. Giannozzi et al., J. Chem. Phys. 152 154105 (2020);
          URL http://www.quantum-espresso.org", 
     in publications or presentations arising from this work. More details at
     http://www.quantum-espresso.org/quote

     Parallel version (MPI), running on     2 processors

     MPI processes distributed on     1 nodes
     13800 MiB available memory on the printing compute node when the environment starts

     Waiting for input...
     Reading input from standard input
Warning: card &CELL ignored
Warning: card / ignored

     Current dimensions of program PWSCF are:
     Max number of different atomic species (ntypx) = 10
     Max number of k-points (npk) =  40000
     Max angular momentum in pseudopotentials (lmaxx) =  4
     file Ba.pbe-spn-kjpaw_psl.1.0.0.UPF: wavefunction(s)  5S 6S renormalized
     file Bi.pbe-dn-kjpaw_psl.1.0.0.UPF: wavefunction(s)  6P 5D renormalized
     file O.pbe-n-kjpaw_psl.1.0.0.UPF: wavefunction(s)  2S 2P renormalized
     Message from routine setup:
     using ibrav=0 with symmetry is DISCOURAGED, use correct ibrav instead

     R & G space division:  proc/nbgrp/npool/nimage =       2
     Subspace diagonalization in iterative solution of the eigenvalue problem:
     a serial algorithm will be used


     Parallelization info
     --------------------
     sticks:   dense  smooth     PW     G-vecs:    dense   smooth      PW
     Min        1520     756    214                62998    22196    3333
     Max        1521     757    215                63001    22199    3334
     Sum        3041    1513    429               125999    44395    6667

     Using Slab Decomposition



     bravais-lattice index     =            0
     lattice parameter (alat)  =       8.2581  a.u.
     unit-cell volume          =     563.1718 (a.u.)^3
     number of atoms/cell      =            5
     number of atomic types    =            3
     number of electrons       =        43.00
     number of Kohn-Sham states=           26
     kinetic-energy cutoff     =      70.0000  Ry
     charge density cutoff     =     560.0000  Ry
     scf convergence threshold =      1.0E-07
     mixing beta               =       0.7000
     number of iterations used =            8  plain     mixing
     Exchange-correlation= SLA  PW   PBX  PBC
                           (   1   4   3   4   0   0   0)

     celldm(1)=   8.258103  celldm(2)=   0.000000  celldm(3)=   0.000000
     celldm(4)=   0.000000  celldm(5)=   0.000000  celldm(6)=   0.000000

     crystal axes: (cart. coord. in units of alat)
               a(1) = (   1.000000   0.000000   0.000000 )  
               a(2) = (   0.000000   1.000000   0.000000 )  
               a(3) = (   0.000000   0.000000   1.000000 )  

     reciprocal axes: (cart. coord. in units 2 pi/alat)
               b(1) = (  1.000000  0.000000  0.000000 )  
               b(2) = (  0.000000  1.000000  0.000000 )  
               b(3) = (  0.000000  0.000000  1.000000 )  


     PseudoPot. # 1 for Ba read from file:
     /home/bond/Software/qe-7.1/pseudo/Ba.pbe-spn-kjpaw_psl.1.0.0.UPF
     MD5 check sum: 7cfe25f1fe7574a4710541d5a11d6531
     Pseudo is Projector augmented-wave + core cor, Zval = 10.0
     Generated using &quot;atomic&quot; code by A. Dal Corso  v.6.2.2
     Shape of augmentation charge: PSQ
     Using radial grid of 1251 points,  7 beta functions with: 
                l(1) =   0
                l(2) =   0
                l(3) =   0
                l(4) =   1
                l(5) =   1
                l(6) =   2
                l(7) =   2
     Q(r) pseudized with 0 coefficients 


     PseudoPot. # 2 for Bi read from file:
     /home/bond/Software/qe-7.1/pseudo/Bi.pbe-dn-kjpaw_psl.1.0.0.UPF
     MD5 check sum: 266ded784ae3bc462508ed03f0f37963
     Pseudo is Projector augmented-wave + core cor, Zval = 15.0
     Generated using &quot;atomic&quot; code by A. Dal Corso  v.6.2.2
     Shape of augmentation charge: PSQ
     Using radial grid of 1283 points,  6 beta functions with: 
                l(1) =   0
                l(2) =   0
                l(3) =   1
                l(4) =   1
                l(5) =   2
                l(6) =   2
     Q(r) pseudized with 0 coefficients 


     PseudoPot. # 3 for O  read from file:
     /home/bond/Software/qe-7.1/pseudo/O.pbe-n-kjpaw_psl.1.0.0.UPF
     MD5 check sum: e99d9cef9b487d1ca56f5b95ecd0fd7a
     Pseudo is Projector augmented-wave + core cor, Zval =  6.0
     Generated using &quot;atomic&quot; code by A. Dal Corso  v.6.3
     Shape of augmentation charge: PSQ
     Using radial grid of 1095 points,  4 beta functions with: 
                l(1) =   0
                l(2) =   0
                l(3) =   1
                l(4) =   1
     Q(r) pseudized with 0 coefficients 


     atomic species   valence    mass     pseudopotential
        Ba            10.00   137.32700     Ba( 1.00)
        Bi            15.00   208.98040     Bi( 1.00)
        O              6.00    15.99900     O ( 1.00)

     48 Sym. Ops., with inversion, found



   Cartesian axes

     site n.     atom                  positions (alat units)
         1           Ba  tau(   1) = (   0.5000000   0.5000000   0.5000000  )
         2           Bi  tau(   2) = (   0.0000000   0.0000000   0.0000000  )
         3           O   tau(   3) = (   0.0000000   0.0000000   0.5000000  )
         4           O   tau(   4) = (   0.5000000   0.0000000   0.0000000  )
         5           O   tau(   5) = (   0.0000000   0.5000000   0.0000000  )

     number of k points=    10  Methfessel-Paxton smearing, width (Ry)=  0.0200
                       cart. coord. in units 2pi/alat
        k(    1) = (   0.0000000   0.0000000   0.0000000), wk =   0.0160000
        k(    2) = (   0.0000000   0.0000000   0.2000000), wk =   0.0960000
        k(    3) = (   0.0000000   0.0000000   0.4000000), wk =   0.0960000
        k(    4) = (   0.0000000   0.2000000   0.2000000), wk =   0.1920000
        k(    5) = (   0.0000000   0.2000000   0.4000000), wk =   0.3840000
        k(    6) = (   0.0000000   0.4000000   0.4000000), wk =   0.1920000
        k(    7) = (   0.2000000   0.2000000   0.2000000), wk =   0.1280000
        k(    8) = (   0.2000000   0.2000000   0.4000000), wk =   0.3840000
        k(    9) = (   0.2000000   0.4000000   0.4000000), wk =   0.3840000
        k(   10) = (   0.4000000   0.4000000   0.4000000), wk =   0.1280000

     Dense  grid:   125999 G-vectors     FFT dimensions: (  64,  64,  64)

     Smooth grid:    44395 G-vectors     FFT dimensions: (  45,  45,  45)

     Estimated max dynamical RAM per process >     272.56 MB

     Estimated total dynamical RAM >     545.12 MB

     Initial potential from superposition of free atoms

     starting charge      42.9822, renormalised to      43.0000
     Starting wfcs are   26 randomized atomic wfcs
     Checking if some PAW data can be deallocated... 

     total cpu time spent up to now is        7.2 secs

     Self-consistent Calculation

     iteration #  1     ecut=    70.00 Ry     beta= 0.70
     Davidson diagonalization with overlap
     ethr =  1.00E-02,  avg # of iterations =  5.4

     total cpu time spent up to now is       14.7 secs

     total energy              =   -1466.68985441 Ry
     estimated scf accuracy    <       1.70221064 Ry

     iteration #  2     ecut=    70.00 Ry     beta= 0.70
     Davidson diagonalization with overlap
     ethr =  3.96E-03,  avg # of iterations =  6.2

     total cpu time spent up to now is       21.5 secs

     total energy              =   -1467.12177076 Ry
     estimated scf accuracy    <       3.75378036 Ry

     iteration #  3     ecut=    70.00 Ry     beta= 0.70
     Davidson diagonalization with overlap
     ethr =  3.96E-03,  avg # of iterations =  3.0

     total cpu time spent up to now is       26.9 secs

     total energy              =   -1467.41888053 Ry
     estimated scf accuracy    <       0.37929594 Ry

     iteration #  4     ecut=    70.00 Ry     beta= 0.70
     Davidson diagonalization with overlap
     ethr =  8.82E-04,  avg # of iterations =  5.6

     total cpu time spent up to now is       32.8 secs

     total energy              =   -1467.75897116 Ry
     estimated scf accuracy    <       0.17382384 Ry

     iteration #  5     ecut=    70.00 Ry     beta= 0.70
     Davidson diagonalization with overlap
     ethr =  4.04E-04,  avg # of iterations =  1.9

     total cpu time spent up to now is       37.3 secs

     total energy              =   -1467.73816317 Ry
     estimated scf accuracy    <       0.05848277 Ry

     iteration #  6     ecut=    70.00 Ry     beta= 0.70
     Davidson diagonalization with overlap
     ethr =  1.36E-04,  avg # of iterations =  8.1

     total cpu time spent up to now is       43.6 secs

     total energy              =   -1467.76581021 Ry
     estimated scf accuracy    <       0.00790027 Ry

     iteration #  7     ecut=    70.00 Ry     beta= 0.70
     Davidson diagonalization with overlap
     c_bands:  1 eigenvalues not converged
     ethr =  1.84E-05,  avg # of iterations = 10.3

     total cpu time spent up to now is       49.3 secs

     total energy              =   -1467.76264611 Ry
     estimated scf accuracy    <       0.01304792 Ry

     iteration #  8     ecut=    70.00 Ry     beta= 0.70
     Davidson diagonalization with overlap
     ethr =  1.84E-05,  avg # of iterations =  4.1

     total cpu time spent up to now is       54.0 secs

     total energy              =   -1467.76161564 Ry
     estimated scf accuracy    <       0.00336375 Ry

     iteration #  9     ecut=    70.00 Ry     beta= 0.70
     Davidson diagonalization with overlap
     ethr =  7.82E-06,  avg # of iterations =  5.1

     total cpu time spent up to now is       59.9 secs

     total energy              =   -1467.76336096 Ry
     estimated scf accuracy    <       0.00086947 Ry

     iteration # 10     ecut=    70.00 Ry     beta= 0.70
     Davidson diagonalization with overlap
     ethr =  2.02E-06,  avg # of iterations =  3.7

     total cpu time spent up to now is       64.7 secs

     total energy              =   -1467.76347404 Ry
     estimated scf accuracy    <       0.00029997 Ry

     iteration # 11     ecut=    70.00 Ry     beta= 0.70
     Davidson diagonalization with overlap
     ethr =  6.98E-07,  avg # of iterations =  1.9

     total cpu time spent up to now is       69.3 secs

     total energy              =   -1467.76334706 Ry
     estimated scf accuracy    <       0.00048137 Ry

     iteration # 12     ecut=    70.00 Ry     beta= 0.70
     Davidson diagonalization with overlap
     ethr =  6.98E-07,  avg # of iterations =  2.0

     total cpu time spent up to now is       74.0 secs

     total energy              =   -1467.76326193 Ry
     estimated scf accuracy    <       0.00013398 Ry

     iteration # 13     ecut=    70.00 Ry     beta= 0.70
     Davidson diagonalization with overlap
     ethr =  3.12E-07,  avg # of iterations =  7.0

     total cpu time spent up to now is       80.2 secs

     total energy              =   -1467.76341414 Ry
     estimated scf accuracy    <       0.00130844 Ry

     iteration # 14     ecut=    70.00 Ry     beta= 0.70
     Davidson diagonalization with overlap
     ethr =  3.12E-07,  avg # of iterations =  5.1

     total cpu time spent up to now is       85.9 secs

     total energy              =   -1467.76328095 Ry
     estimated scf accuracy    <       0.00037893 Ry

     iteration # 15     ecut=    70.00 Ry     beta= 0.70
     Davidson diagonalization with overlap
     ethr =  3.12E-07,  avg # of iterations =  5.0

     total cpu time spent up to now is       91.9 secs

     total energy              =   -1467.76338728 Ry
     estimated scf accuracy    <       0.00001796 Ry

     iteration # 16     ecut=    70.00 Ry     beta= 0.70
     Davidson diagonalization with overlap
     ethr =  4.18E-08,  avg # of iterations =  1.9

     total cpu time spent up to now is       96.4 secs

     total energy              =   -1467.76338580 Ry
     estimated scf accuracy    <       0.00000522 Ry

     iteration # 17     ecut=    70.00 Ry     beta= 0.70
     Davidson diagonalization with overlap
     ethr =  1.21E-08,  avg # of iterations =  5.0

     total cpu time spent up to now is      102.3 secs

     total energy              =   -1467.76338910 Ry
     estimated scf accuracy    <       0.00000202 Ry

     iteration # 18     ecut=    70.00 Ry     beta= 0.70
     Davidson diagonalization with overlap
     ethr =  4.70E-09,  avg # of iterations =  1.6

     total cpu time spent up to now is      106.7 secs

     total energy              =   -1467.76338902 Ry
     estimated scf accuracy    <       0.00000210 Ry

     iteration # 19     ecut=    70.00 Ry     beta= 0.70
     Davidson diagonalization with overlap
     ethr =  4.70E-09,  avg # of iterations =  1.1

     total cpu time spent up to now is      111.0 secs

     total energy              =   -1467.76339192 Ry
     estimated scf accuracy    <       0.00000182 Ry

     iteration # 20     ecut=    70.00 Ry     beta= 0.70
     Davidson diagonalization with overlap
     ethr =  4.23E-09,  avg # of iterations =  5.0

     total cpu time spent up to now is      117.0 secs

     total energy              =   -1467.76338955 Ry
     estimated scf accuracy    <       0.00002078 Ry

     iteration # 21     ecut=    70.00 Ry     beta= 0.70
     Davidson diagonalization with overlap
     ethr =  4.23E-09,  avg # of iterations =  5.5

     total cpu time spent up to now is      122.3 secs

     total energy              =   -1467.76338730 Ry
     estimated scf accuracy    <       0.00000884 Ry

     iteration # 22     ecut=    70.00 Ry     beta= 0.70
     Davidson diagonalization with overlap
     ethr =  4.23E-09,  avg # of iterations =  4.9

     total cpu time spent up to now is      128.1 secs

     total energy              =   -1467.76338847 Ry
     estimated scf accuracy    <       0.00000035 Ry

     iteration # 23     ecut=    70.00 Ry     beta= 0.70
     Davidson diagonalization with overlap
     ethr =  8.08E-10,  avg # of iterations =  5.0

     total cpu time spent up to now is      133.2 secs

     End of self-consistent calculation

          k = 0.0000 0.0000 0.0000 (  5497 PWs)   bands (ev):

   -16.6675 -12.6131 -12.6131 -12.1529 -12.1529 -12.1529  -8.5413  -5.9728
    -5.9728  -1.7963  -1.7963  -1.7963   4.1207   4.4429   4.4429   4.4429
     8.1124   8.1124   8.1124   8.3787   8.3787   8.3787  13.5576  13.5576
    14.8125  15.5722

          k = 0.0000 0.0000 0.2000 (  5566 PWs)   bands (ev):

   -16.6570 -12.6127 -12.5493 -12.1567 -12.1567 -12.1530  -8.4409  -6.3311
    -5.9682  -1.7640  -1.7640  -1.7406   2.6223   4.4435   4.4435   6.2789
     7.9095   8.0253   8.0253   8.2940   8.2940   8.5817  14.0436  14.0650
    15.5025  15.6696

          k = 0.0000 0.0000 0.4000 (  5550 PWs)   bands (ev):

   -16.6400 -12.6120 -12.4428 -12.1624 -12.1624 -12.1528  -8.1350  -7.0403
    -5.9606  -1.7105  -1.7105  -1.6760   1.8389   4.4350   4.4350   6.8530
     7.6236   7.9509   7.9509   8.1213   8.1213  10.1398  14.8427  14.8625
    15.8472  16.4322

          k = 0.0000 0.2000 0.2000 (  5575 PWs)   bands (ev):

   -16.6475 -12.5815 -12.5142 -12.1598 -12.1566 -12.1563  -8.3376  -6.4616
    -6.1589  -1.7919  -1.7364  -1.6946   1.6841   4.4788   5.4449   6.4831
     7.6162   7.9274   8.1336   8.1877   8.4861   8.8347  14.3537  14.5959
    15.6719  16.0096

          k = 0.0000 0.2000 0.4000 (  5550 PWs)   bands (ev):

   -16.6319 -12.5706 -12.4138 -12.1649 -12.1621 -12.1561  -8.0212  -7.0657
    -6.2209  -1.7698  -1.7085  -1.6910   0.9527   4.5309   5.8289   6.7724
     7.5167   7.8348   7.9743   8.0818   8.4393  10.4054  15.0246  15.3394
    16.0220  16.1608

          k = 0.0000 0.4000 0.4000 (  5552 PWs)   bands (ev):

   -16.6188 -12.5323 -12.3333 -12.1688 -12.1617 -12.1616  -7.6755  -7.1739
    -6.7525  -1.8258  -1.7942  -1.6590   0.1881   4.6995   6.5853   7.3715
     7.6087   7.6608   7.7260   8.2084   8.7835  11.4616  15.2226  15.5313
    15.7261  15.9918

          k = 0.2000 0.2000 0.2000 (  5557 PWs)   bands (ev):

   -16.6386 -12.5137 -12.5137 -12.1600 -12.1600 -12.1591  -8.2356  -6.4476
    -6.4476  -1.8008  -1.8008  -1.6461   0.8949   5.4748   5.4748   6.5528
     7.6208   7.6208   8.3803   8.4142   8.4142   9.0742  14.7217  14.7217
    15.6184  16.0596

          k = 0.2000 0.2000 0.4000 (  5582 PWs)   bands (ev):

   -16.6241 -12.5131 -12.3999 -12.1661 -12.1642 -12.1597  -7.9205  -7.0716
    -6.4246  -1.8158  -1.8047  -1.6852   0.1756   5.5177   6.1813   6.8088
     7.4327   7.6711   8.2595   8.2637   8.4988  10.5982  14.9270  15.2355
    15.8228  15.9491

          k = 0.2000 0.4000 0.4000 (  5572 PWs)   bands (ev):

   -16.6115 -12.4586 -12.3331 -12.1701 -12.1656 -12.1652  -7.6128  -7.1506
    -6.8506  -1.8857  -1.8766  -1.7558  -0.6019   5.9455   6.8259   7.3664
     7.4289   7.7000   8.2330   8.4116   8.7986  11.5625  14.5439  14.6064
    15.1463  16.0806

          k = 0.4000 0.4000 0.4000 (  5607 PWs)   bands (ev):

   -16.5996 -12.3328 -12.3328 -12.1721 -12.1721 -12.1709  -7.4229  -7.1122
    -7.1122  -1.9824  -1.9824  -1.9253  -1.4775   7.2023   7.3983   7.3983
     7.7323   7.7323   8.7405   8.7405   8.8540  12.1038  13.5717  13.5717
    14.2580  17.0500

     the Fermi energy is    10.5464 ev

!    total energy              =   -1467.76338856 Ry
     total all-electron energy =    -59784.855171 Ry
     estimated scf accuracy    <          4.7E-09 Ry
     smearing contrib. (-TS)   =      -0.00125182 Ry
     internal energy E=F+TS    =   -1467.76213674 Ry

     The total energy is F=E-TS. E is the sum of the following terms:
     one-electron contribution =     -79.66878285 Ry
     hartree contribution      =      72.43469715 Ry
     xc contribution           =     -75.40226059 Ry
     ewald contribution        =    -224.80543164 Ry
     one-center paw contrib.   =   -1160.32035881 Ry

     convergence has been achieved in  23 iterations

     Forces acting on atoms (cartesian axes, Ry/au):

     atom    1 type  1   force =     0.00000000    0.00000000    0.00000000
     atom    2 type  2   force =     0.00000000    0.00000000    0.00000000
     atom    3 type  3   force =     0.00000000    0.00000000    0.00000000
     atom    4 type  3   force =     0.00000000    0.00000000    0.00000000
     atom    5 type  3   force =     0.00000000    0.00000000    0.00000000

     Total force =     0.000000     Total SCF correction =     0.000000


     Computing stress (Cartesian axis) and pressure

          total   stress  (Ry/bohr**3)                   (kbar)     P=       41.64
   0.00028306   0.00000000   0.00000000           41.64        0.00        0.00
   0.00000000   0.00028306   0.00000000            0.00       41.64        0.00
   0.00000000   0.00000000   0.00028306            0.00        0.00       41.64


     init_run     :      4.27s CPU      5.77s WALL (       1 calls)
     electrons    :    107.21s CPU    126.02s WALL (       1 calls)
     forces       :      1.16s CPU      1.41s WALL (       1 calls)
     stress       :      6.61s CPU      7.58s WALL (       1 calls)

     Called by init_run:
     wfcinit      :      1.35s CPU      1.42s WALL (       1 calls)
     potinit      :      0.79s CPU      1.36s WALL (       1 calls)
     hinit0       :      1.56s CPU      2.08s WALL (       1 calls)

     Called by electrons:
     c_bands      :     61.25s CPU     67.06s WALL (      23 calls)
     sum_band     :     21.04s CPU     27.57s WALL (      23 calls)
     v_of_rho     :      2.62s CPU      2.97s WALL (      24 calls)
     newd         :     10.10s CPU     15.34s WALL (      24 calls)
     PAW_pot      :     12.52s CPU     14.08s WALL (      24 calls)
     mix_rho      :      0.44s CPU      0.49s WALL (      23 calls)

     Called by c_bands:
     init_us_2    :      1.20s CPU      1.33s WALL (     490 calls)
     init_us_2:cp :      1.20s CPU      1.32s WALL (     490 calls)
     cegterg      :     58.49s CPU     64.04s WALL (     230 calls)

     Called by *egterg:
     cdiaghg      :      1.60s CPU      1.73s WALL (    1274 calls)
     h_psi        :     47.56s CPU     52.04s WALL (    1284 calls)
     s_psi        :      2.03s CPU      2.24s WALL (    1284 calls)
     g_psi        :      0.25s CPU      0.29s WALL (    1044 calls)

     Called by h_psi:
     h_psi:calbec :      2.39s CPU      2.62s WALL (    1284 calls)
     vloc_psi     :     42.62s CPU     46.66s WALL (    1284 calls)
     add_vuspsi   :      2.32s CPU      2.52s WALL (    1284 calls)

     General routines
     calbec       :      3.17s CPU      3.45s WALL (    1564 calls)
     fft          :      1.65s CPU      2.00s WALL (     335 calls)
     ffts         :      0.18s CPU      0.26s WALL (      47 calls)
     fftw         :     45.37s CPU     49.78s WALL (   39414 calls)
     interpolate  :      0.26s CPU      0.35s WALL (      24 calls)

     Parallel routines

     PWSCF        :   2m 0.19s CPU   2m22.22s WALL


   This run was terminated on:   2:45:32   6May2024            

=------------------------------------------------------------------------------=
   JOB DONE.
=------------------------------------------------------------------------------=
