
     Program PWSCF v.7.1 starts on  6May2024 at  2:58:20 

     This program is part of the open-source Quantum ESPRESSO suite
     for quantum simulation of materials; please cite
         "P. Giannozzi et al., J. Phys.:Condens. Matter 21 395502 (2009);
         "P. Giannozzi et al., J. Phys.:Condens. Matter 29 465901 (2017);
         "P. Giannozzi et al., J. Chem. Phys. 152 154105 (2020);
          URL http://www.quantum-espresso.org", 
     in publications or presentations arising from this work. More details at
     http://www.quantum-espresso.org/quote

     Parallel version (MPI), running on     2 processors

     MPI processes distributed on     1 nodes
     13800 MiB available memory on the printing compute node when the environment starts

     Waiting for input...
     Reading input from standard input
Warning: card &CELL ignored
Warning: card / ignored

     Current dimensions of program PWSCF are:
     Max number of different atomic species (ntypx) = 10
     Max number of k-points (npk) =  40000
     Max angular momentum in pseudopotentials (lmaxx) =  4
     file Ba.pbe-spn-kjpaw_psl.1.0.0.UPF: wavefunction(s)  5S 6S renormalized
     file Bi.pbe-dn-kjpaw_psl.1.0.0.UPF: wavefunction(s)  6P 5D renormalized
     file O.pbe-n-kjpaw_psl.1.0.0.UPF: wavefunction(s)  2S 2P renormalized
     Message from routine setup:
     using ibrav=0 with symmetry is DISCOURAGED, use correct ibrav instead

     R & G space division:  proc/nbgrp/npool/nimage =       2
     Subspace diagonalization in iterative solution of the eigenvalue problem:
     a serial algorithm will be used


     Parallelization info
     --------------------
     sticks:   dense  smooth     PW     G-vecs:    dense   smooth      PW
     Min        1574     790    218                66608    23544    3536
     Max        1575     791    219                66611    23545    3539
     Sum        3149    1581    437               133219    47089    7075

     Using Slab Decomposition



     bravais-lattice index     =            0
     lattice parameter (alat)  =       8.4093  a.u.
     unit-cell volume          =     594.6708 (a.u.)^3
     number of atoms/cell      =            5
     number of atomic types    =            3
     number of electrons       =        43.00
     number of Kohn-Sham states=           26
     kinetic-energy cutoff     =      70.0000  Ry
     charge density cutoff     =     560.0000  Ry
     scf convergence threshold =      1.0E-07
     mixing beta               =       0.7000
     number of iterations used =            8  plain     mixing
     Exchange-correlation= SLA  PW   PBX  PBC
                           (   1   4   3   4   0   0   0)

     celldm(1)=   8.409281  celldm(2)=   0.000000  celldm(3)=   0.000000
     celldm(4)=   0.000000  celldm(5)=   0.000000  celldm(6)=   0.000000

     crystal axes: (cart. coord. in units of alat)
               a(1) = (   1.000000   0.000000   0.000000 )  
               a(2) = (   0.000000   1.000000   0.000000 )  
               a(3) = (   0.000000   0.000000   1.000000 )  

     reciprocal axes: (cart. coord. in units 2 pi/alat)
               b(1) = (  1.000000  0.000000  0.000000 )  
               b(2) = (  0.000000  1.000000  0.000000 )  
               b(3) = (  0.000000  0.000000  1.000000 )  


     PseudoPot. # 1 for Ba read from file:
     /home/bond/Software/qe-7.1/pseudo/Ba.pbe-spn-kjpaw_psl.1.0.0.UPF
     MD5 check sum: 7cfe25f1fe7574a4710541d5a11d6531
     Pseudo is Projector augmented-wave + core cor, Zval = 10.0
     Generated using &quot;atomic&quot; code by A. Dal Corso  v.6.2.2
     Shape of augmentation charge: PSQ
     Using radial grid of 1251 points,  7 beta functions with: 
                l(1) =   0
                l(2) =   0
                l(3) =   0
                l(4) =   1
                l(5) =   1
                l(6) =   2
                l(7) =   2
     Q(r) pseudized with 0 coefficients 


     PseudoPot. # 2 for Bi read from file:
     /home/bond/Software/qe-7.1/pseudo/Bi.pbe-dn-kjpaw_psl.1.0.0.UPF
     MD5 check sum: 266ded784ae3bc462508ed03f0f37963
     Pseudo is Projector augmented-wave + core cor, Zval = 15.0
     Generated using &quot;atomic&quot; code by A. Dal Corso  v.6.2.2
     Shape of augmentation charge: PSQ
     Using radial grid of 1283 points,  6 beta functions with: 
                l(1) =   0
                l(2) =   0
                l(3) =   1
                l(4) =   1
                l(5) =   2
                l(6) =   2
     Q(r) pseudized with 0 coefficients 


     PseudoPot. # 3 for O  read from file:
     /home/bond/Software/qe-7.1/pseudo/O.pbe-n-kjpaw_psl.1.0.0.UPF
     MD5 check sum: e99d9cef9b487d1ca56f5b95ecd0fd7a
     Pseudo is Projector augmented-wave + core cor, Zval =  6.0
     Generated using &quot;atomic&quot; code by A. Dal Corso  v.6.3
     Shape of augmentation charge: PSQ
     Using radial grid of 1095 points,  4 beta functions with: 
                l(1) =   0
                l(2) =   0
                l(3) =   1
                l(4) =   1
     Q(r) pseudized with 0 coefficients 


     atomic species   valence    mass     pseudopotential
        Ba            10.00   137.32700     Ba( 1.00)
        Bi            15.00   208.98040     Bi( 1.00)
        O              6.00    15.99900     O ( 1.00)

     48 Sym. Ops., with inversion, found



   Cartesian axes

     site n.     atom                  positions (alat units)
         1           Ba  tau(   1) = (   0.5000000   0.5000000   0.5000000  )
         2           Bi  tau(   2) = (   0.0000000   0.0000000   0.0000000  )
         3           O   tau(   3) = (   0.0000000   0.0000000   0.5000000  )
         4           O   tau(   4) = (   0.5000000   0.0000000   0.0000000  )
         5           O   tau(   5) = (   0.0000000   0.5000000   0.0000000  )

     number of k points=    10  Methfessel-Paxton smearing, width (Ry)=  0.0200
                       cart. coord. in units 2pi/alat
        k(    1) = (   0.0000000   0.0000000   0.0000000), wk =   0.0160000
        k(    2) = (   0.0000000   0.0000000   0.2000000), wk =   0.0960000
        k(    3) = (   0.0000000   0.0000000   0.4000000), wk =   0.0960000
        k(    4) = (   0.0000000   0.2000000   0.2000000), wk =   0.1920000
        k(    5) = (   0.0000000   0.2000000   0.4000000), wk =   0.3840000
        k(    6) = (   0.0000000   0.4000000   0.4000000), wk =   0.1920000
        k(    7) = (   0.2000000   0.2000000   0.2000000), wk =   0.1280000
        k(    8) = (   0.2000000   0.2000000   0.4000000), wk =   0.3840000
        k(    9) = (   0.2000000   0.4000000   0.4000000), wk =   0.3840000
        k(   10) = (   0.4000000   0.4000000   0.4000000), wk =   0.1280000

     Dense  grid:   133219 G-vectors     FFT dimensions: (  64,  64,  64)

     Smooth grid:    47089 G-vectors     FFT dimensions: (  45,  45,  45)

     Estimated max dynamical RAM per process >     287.20 MB

     Estimated total dynamical RAM >     574.41 MB

     Initial potential from superposition of free atoms

     starting charge      42.9822, renormalised to      43.0000
     Starting wfcs are   26 randomized atomic wfcs
     Checking if some PAW data can be deallocated... 

     total cpu time spent up to now is        5.5 secs

     Self-consistent Calculation

     iteration #  1     ecut=    70.00 Ry     beta= 0.70
     Davidson diagonalization with overlap
     ethr =  1.00E-02,  avg # of iterations =  2.8

     total cpu time spent up to now is       10.2 secs

     total energy              =   -1466.63844711 Ry
     estimated scf accuracy    <       1.77171551 Ry

     iteration #  2     ecut=    70.00 Ry     beta= 0.70
     Davidson diagonalization with overlap
     ethr =  4.12E-03,  avg # of iterations =  6.0

     total cpu time spent up to now is       16.4 secs

     total energy              =   -1467.10819744 Ry
     estimated scf accuracy    <       4.03909821 Ry

     iteration #  3     ecut=    70.00 Ry     beta= 0.70
     Davidson diagonalization with overlap
     ethr =  4.12E-03,  avg # of iterations =  2.5

     total cpu time spent up to now is       21.4 secs

     total energy              =   -1467.44951187 Ry
     estimated scf accuracy    <       0.41755637 Ry

     iteration #  4     ecut=    70.00 Ry     beta= 0.70
     Davidson diagonalization with overlap
     ethr =  9.71E-04,  avg # of iterations =  5.3

     total cpu time spent up to now is       27.8 secs

     total energy              =   -1467.77497707 Ry
     estimated scf accuracy    <       0.06924949 Ry

     iteration #  5     ecut=    70.00 Ry     beta= 0.70
     Davidson diagonalization with overlap
     ethr =  1.61E-04,  avg # of iterations =  7.6

     total cpu time spent up to now is       33.7 secs

     total energy              =   -1467.76150374 Ry
     estimated scf accuracy    <       0.05982827 Ry

     iteration #  6     ecut=    70.00 Ry     beta= 0.70
     Davidson diagonalization with overlap
     ethr =  1.39E-04,  avg # of iterations =  2.0

     total cpu time spent up to now is       38.3 secs

     total energy              =   -1467.76179636 Ry
     estimated scf accuracy    <       0.01413924 Ry

     iteration #  7     ecut=    70.00 Ry     beta= 0.70
     Davidson diagonalization with overlap
     ethr =  3.29E-05,  avg # of iterations = 11.3

     total cpu time spent up to now is       44.6 secs

     total energy              =   -1467.76588111 Ry
     estimated scf accuracy    <       0.00028787 Ry

     iteration #  8     ecut=    70.00 Ry     beta= 0.70
     Davidson diagonalization with overlap
     c_bands:  1 eigenvalues not converged
     c_bands:  2 eigenvalues not converged
     ethr =  6.69E-07,  avg # of iterations = 12.4

     total cpu time spent up to now is       51.9 secs

     total energy              =   -1467.76624657 Ry
     estimated scf accuracy    <       0.00015038 Ry

     iteration #  9     ecut=    70.00 Ry     beta= 0.70
     Davidson diagonalization with overlap
     c_bands:  1 eigenvalues not converged
     ethr =  3.50E-07,  avg # of iterations =  5.8

     total cpu time spent up to now is       57.1 secs

     total energy              =   -1467.76627742 Ry
     estimated scf accuracy    <       0.00000104 Ry

     iteration # 10     ecut=    70.00 Ry     beta= 0.70
     Davidson diagonalization with overlap
     ethr =  2.43E-09,  avg # of iterations = 10.0

     total cpu time spent up to now is       65.2 secs

     total energy              =   -1467.76628964 Ry
     estimated scf accuracy    <       0.00002292 Ry

     iteration # 11     ecut=    70.00 Ry     beta= 0.70
     Davidson diagonalization with overlap
     ethr =  2.43E-09,  avg # of iterations =  5.0

     total cpu time spent up to now is       71.2 secs

     total energy              =   -1467.76628659 Ry
     estimated scf accuracy    <       0.00000704 Ry

     iteration # 12     ecut=    70.00 Ry     beta= 0.70
     Davidson diagonalization with overlap
     ethr =  2.43E-09,  avg # of iterations =  5.3

     total cpu time spent up to now is       77.4 secs

     total energy              =   -1467.76628867 Ry
     estimated scf accuracy    <       0.00000119 Ry

     iteration # 13     ecut=    70.00 Ry     beta= 0.70
     Davidson diagonalization with overlap
     ethr =  2.43E-09,  avg # of iterations =  2.2

     total cpu time spent up to now is       82.4 secs

     End of self-consistent calculation

          k = 0.0000 0.0000 0.0000 (  5887 PWs)   bands (ev):

   -17.5417 -13.3705 -13.3705 -13.0193 -13.0193 -13.0193  -8.9695  -6.7232
    -6.7232  -2.6468  -2.6468  -2.6468   2.9163   3.9231   3.9231   3.9231
     7.5038   7.5038   7.5038   7.7129   7.7129   7.7129  12.8067  12.8068
    13.7787  14.7075

          k = 0.0000 0.0000 0.2000 (  5870 PWs)   bands (ev):

   -17.5341 -13.3702 -13.3196 -13.0219 -13.0219 -13.0192  -8.8735  -7.0196
    -6.7193  -2.6225  -2.6225  -2.6080   1.7172   3.9321   3.9321   5.5055
     7.3202   7.4207   7.4207   7.6362   7.6362   7.8323  13.2532  13.2667
    14.4385  15.0092

          k = 0.0000 0.0000 0.4000 (  5894 PWs)   bands (ev):

   -17.5218 -13.3698 -13.2352 -13.0263 -13.0263 -13.0190  -8.5955  -7.6146
    -6.7129  -2.5826  -2.5826  -2.5613   0.9435   3.9402   3.9402   6.2422
     7.0596   7.3451   7.3451   7.4775   7.4775   9.1279  13.8839  14.0055
    14.9692  15.4449

          k = 0.0000 0.2000 0.2000 (  5856 PWs)   bands (ev):

   -17.5271 -13.3452 -13.2921 -13.0243 -13.0218 -13.0217  -8.7752  -7.1279
    -6.8769  -2.6492  -2.6016  -2.5718   0.8844   3.9700   4.8522   5.7600
     7.0306   7.3282   7.5133   7.5413   7.8158   7.9959  13.5410  13.7642
    14.6627  15.0910

          k = 0.0000 0.2000 0.4000 (  5882 PWs)   bands (ev):

   -17.5158 -13.3366 -13.2135 -13.0282 -13.0261 -13.0216  -8.4880  -7.6348
    -6.9284  -2.6334  -2.5853  -2.5673   0.1724   4.0288   5.1998   6.1846
     6.9213   7.2360   7.3491   7.4479   7.7870   9.3635  14.1006  14.3602
    15.0558  15.2417

          k = 0.0000 0.4000 0.4000 (  5912 PWs)   bands (ev):

   -17.5060 -13.3056 -13.1529 -13.0313 -13.0258 -13.0257  -8.1718  -7.7231
    -7.3758  -2.6806  -2.6546  -2.5423  -0.5520   4.1842   6.0324   6.6887
     6.9765   7.0736   7.1284   7.5129   8.1159  10.3308  14.2273  14.3542
    14.7927  14.8844

          k = 0.2000 0.2000 0.2000 (  5884 PWs)   bands (ev):

   -17.5206 -13.2919 -13.2919 -13.0245 -13.0245 -13.0239  -8.6786  -7.1165
    -7.1165  -2.6563  -2.6563  -2.5340   0.1750   4.8854   4.8854   5.8884
     7.0270   7.0270   7.7502   7.7502   7.7508   8.1464  13.8788  13.8788
    14.6427  15.1065

          k = 0.2000 0.2000 0.4000 (  5873 PWs)   bands (ev):

   -17.5099 -13.2914 -13.2030 -13.0289 -13.0277 -13.0243  -8.3932  -7.6393
    -7.0979  -2.6682  -2.6620  -2.5656  -0.5154   4.9358   5.5248   6.2201
     6.8281   7.0565   7.6072   7.6254   7.8551   9.5301  13.9070  14.3262
    14.8704  14.9713

          k = 0.2000 0.4000 0.4000 (  5896 PWs)   bands (ev):

   -17.5004 -13.2485 -13.1528 -13.0321 -13.0287 -13.0284  -8.1129  -7.7038
    -7.4561  -2.7278  -2.7187  -2.6212  -1.2412   5.3213   6.2418   6.7033
     6.8005   7.0369   7.5968   7.7425   8.1314  10.4255  13.5077  13.5991
    14.1652  15.1450

          k = 0.4000 0.4000 0.4000 (  5860 PWs)   bands (ev):

   -17.4914 -13.1526 -13.1526 -13.0333 -13.0333 -13.0326  -7.9402  -7.6719
    -7.6719  -2.8043  -2.8043  -2.7573  -2.0358   6.5708   6.7446   6.7446
     7.0107   7.0107   8.0720   8.0720   8.1853  10.9770  12.6153  12.6153
    13.1915  16.2392

     the Fermi energy is     9.4888 ev

!    total energy              =   -1467.76628887 Ry
     total all-electron energy =    -59784.858072 Ry
     estimated scf accuracy    <       0.00000002 Ry
     smearing contrib. (-TS)   =      -0.00139639 Ry
     internal energy E=F+TS    =   -1467.76489248 Ry

     The total energy is F=E-TS. E is the sum of the following terms:
     one-electron contribution =     -85.58760814 Ry
     hartree contribution      =      74.13082368 Ry
     xc contribution           =     -75.23761994 Ry
     ewald contribution        =    -220.76398568 Ry
     one-center paw contrib.   =   -1160.30650240 Ry

     convergence has been achieved in  13 iterations

     Forces acting on atoms (cartesian axes, Ry/au):

     atom    1 type  1   force =     0.00000000    0.00000000    0.00000000
     atom    2 type  2   force =     0.00000000    0.00000000    0.00000000
     atom    3 type  3   force =     0.00000000    0.00000000    0.00000000
     atom    4 type  3   force =     0.00000000    0.00000000    0.00000000
     atom    5 type  3   force =     0.00000000    0.00000000    0.00000000

     Total force =     0.000000     Total SCF correction =     0.000000


     Computing stress (Cartesian axis) and pressure

          total   stress  (Ry/bohr**3)                   (kbar)     P=      -18.85
  -0.00012812   0.00000000   0.00000000          -18.85        0.00        0.00
   0.00000000  -0.00012812   0.00000000            0.00      -18.85        0.00
   0.00000000   0.00000000  -0.00012812            0.00        0.00      -18.85


     init_run     :      3.72s CPU      4.41s WALL (       1 calls)
     electrons    :     65.98s CPU     76.90s WALL (       1 calls)
     forces       :      1.23s CPU      1.46s WALL (       1 calls)
     stress       :      6.97s CPU      7.88s WALL (       1 calls)

     Called by init_run:
     wfcinit      :      0.91s CPU      1.00s WALL (       1 calls)
     potinit      :      0.79s CPU      0.93s WALL (       1 calls)
     hinit0       :      1.35s CPU      1.50s WALL (       1 calls)

     Called by electrons:
     c_bands      :     39.26s CPU     42.68s WALL (      13 calls)
     sum_band     :     12.37s CPU     16.38s WALL (      13 calls)
     v_of_rho     :      1.48s CPU      1.64s WALL (      14 calls)
     newd         :      6.36s CPU      9.47s WALL (      14 calls)
     PAW_pot      :      7.27s CPU      7.84s WALL (      14 calls)
     mix_rho      :      0.22s CPU      0.25s WALL (      13 calls)

     Called by c_bands:
     init_us_2    :      0.76s CPU      0.81s WALL (     290 calls)
     init_us_2:cp :      0.76s CPU      0.81s WALL (     290 calls)
     cegterg      :     37.61s CPU     40.89s WALL (     130 calls)

     Called by *egterg:
     cdiaghg      :      1.17s CPU      1.29s WALL (     912 calls)
     h_psi        :     29.55s CPU     32.15s WALL (     922 calls)
     s_psi        :      1.45s CPU      1.57s WALL (     922 calls)
     g_psi        :      0.18s CPU      0.20s WALL (     782 calls)

     Called by h_psi:
     h_psi:calbec :      1.67s CPU      1.81s WALL (     922 calls)
     vloc_psi     :     26.07s CPU     28.39s WALL (     922 calls)
     add_vuspsi   :      1.65s CPU      1.78s WALL (     922 calls)

     General routines
     calbec       :      2.21s CPU      2.40s WALL (    1102 calls)
     fft          :      1.07s CPU      1.17s WALL (     205 calls)
     ffts         :      0.14s CPU      0.16s WALL (      27 calls)
     fftw         :     27.05s CPU     29.48s WALL (   25146 calls)
     interpolate  :      0.19s CPU      0.21s WALL (      14 calls)

     Parallel routines

     PWSCF        :   1m18.85s CPU   1m31.71s WALL


   This run was terminated on:   2:59:52   6May2024            

=------------------------------------------------------------------------------=
   JOB DONE.
=------------------------------------------------------------------------------=
