
     Program PWSCF v.7.1 starts on  6May2024 at 23: 7:49 

     This program is part of the open-source Quantum ESPRESSO suite
     for quantum simulation of materials; please cite
         "P. Giannozzi et al., J. Phys.:Condens. Matter 21 395502 (2009);
         "P. Giannozzi et al., J. Phys.:Condens. Matter 29 465901 (2017);
         "P. Giannozzi et al., J. Chem. Phys. 152 154105 (2020);
          URL http://www.quantum-espresso.org", 
     in publications or presentations arising from this work. More details at
     http://www.quantum-espresso.org/quote

     Parallel version (MPI), running on     2 processors

     MPI processes distributed on     1 nodes
     13579 MiB available memory on the printing compute node when the environment starts

     Waiting for input...
     Reading input from standard input
Warning: card &CELL ignored
Warning: card / ignored

     Current dimensions of program PWSCF are:
     Max number of different atomic species (ntypx) = 10
     Max number of k-points (npk) =  40000
     Max angular momentum in pseudopotentials (lmaxx) =  4
     file Ba.pbe-spn-kjpaw_psl.1.0.0.UPF: wavefunction(s)  5S 6S renormalized
     file Bi.pbe-dn-kjpaw_psl.1.0.0.UPF: wavefunction(s)  6P 5D renormalized
     file F.pbe-n-kjpaw_psl.1.0.0.UPF: wavefunction(s)  2S 2P renormalized
     file O.pbe-n-kjpaw_psl.1.0.0.UPF: wavefunction(s)  2S 2P renormalized
     Message from routine setup:
     using ibrav=0 with symmetry is DISCOURAGED, use correct ibrav instead

     R & G space division:  proc/nbgrp/npool/nimage =       2
     Subspace diagonalization in iterative solution of the eigenvalue problem:
     a serial algorithm will be used


     Parallelization info
     --------------------
     sticks:   dense  smooth     PW     G-vecs:    dense   smooth      PW
     Min        1712     862    240                75349    26677    3940
     Max        1713     863    241                75350    26678    3941
     Sum        3425    1725    481               150699    53355    7881

     Using Slab Decomposition



     bravais-lattice index     =            0
     lattice parameter (alat)  =       8.7683  a.u.
     unit-cell volume          =     674.1407 (a.u.)^3
     number of atoms/cell      =            5
     number of atomic types    =            4
     number of electrons       =        44.00
     number of Kohn-Sham states=           26
     kinetic-energy cutoff     =      70.0000  Ry
     charge density cutoff     =     560.0000  Ry
     scf convergence threshold =      1.0E-07
     mixing beta               =       0.7000
     number of iterations used =            8  plain     mixing
     energy convergence thresh.=      1.0E-04
     force convergence thresh. =      1.0E-03
     Exchange-correlation= SLA  PW   PBX  PBC
                           (   1   4   3   4   0   0   0)
     nstep                     =           50


     celldm(1)=   8.768329  celldm(2)=   0.000000  celldm(3)=   0.000000
     celldm(4)=   0.000000  celldm(5)=   0.000000  celldm(6)=   0.000000

     crystal axes: (cart. coord. in units of alat)
               a(1) = (   1.000000   0.000000   0.000000 )  
               a(2) = (   0.000000   1.000000   0.000000 )  
               a(3) = (   0.000000   0.000000   1.000000 )  

     reciprocal axes: (cart. coord. in units 2 pi/alat)
               b(1) = (  1.000000  0.000000  0.000000 )  
               b(2) = (  0.000000  1.000000  0.000000 )  
               b(3) = (  0.000000  0.000000  1.000000 )  


     PseudoPot. # 1 for Ba read from file:
     /home/bond/Software/qe-7.1/pseudo/Ba.pbe-spn-kjpaw_psl.1.0.0.UPF
     MD5 check sum: 7cfe25f1fe7574a4710541d5a11d6531
     Pseudo is Projector augmented-wave + core cor, Zval = 10.0
     Generated using &quot;atomic&quot; code by A. Dal Corso  v.6.2.2
     Shape of augmentation charge: PSQ
     Using radial grid of 1251 points,  7 beta functions with: 
                l(1) =   0
                l(2) =   0
                l(3) =   0
                l(4) =   1
                l(5) =   1
                l(6) =   2
                l(7) =   2
     Q(r) pseudized with 0 coefficients 


     PseudoPot. # 2 for Bi read from file:
     /home/bond/Software/qe-7.1/pseudo/Bi.pbe-dn-kjpaw_psl.1.0.0.UPF
     MD5 check sum: 266ded784ae3bc462508ed03f0f37963
     Pseudo is Projector augmented-wave + core cor, Zval = 15.0
     Generated using &quot;atomic&quot; code by A. Dal Corso  v.6.2.2
     Shape of augmentation charge: PSQ
     Using radial grid of 1283 points,  6 beta functions with: 
                l(1) =   0
                l(2) =   0
                l(3) =   1
                l(4) =   1
                l(5) =   2
                l(6) =   2
     Q(r) pseudized with 0 coefficients 


     PseudoPot. # 3 for F  read from file:
     /home/bond/Software/qe-7.1/pseudo/F.pbe-n-kjpaw_psl.1.0.0.UPF
     MD5 check sum: 66d718ea72839a4268ab2a9540e8cdd4
     Pseudo is Projector augmented-wave + core cor, Zval =  7.0
     Generated using &quot;atomic&quot; code by A. Dal Corso  v.6.3
     Shape of augmentation charge: PSQ
     Using radial grid of 1105 points,  4 beta functions with: 
                l(1) =   0
                l(2) =   0
                l(3) =   1
                l(4) =   1
     Q(r) pseudized with 0 coefficients 


     PseudoPot. # 4 for O  read from file:
     /home/bond/Software/qe-7.1/pseudo/O.pbe-n-kjpaw_psl.1.0.0.UPF
     MD5 check sum: e99d9cef9b487d1ca56f5b95ecd0fd7a
     Pseudo is Projector augmented-wave + core cor, Zval =  6.0
     Generated using &quot;atomic&quot; code by A. Dal Corso  v.6.3
     Shape of augmentation charge: PSQ
     Using radial grid of 1095 points,  4 beta functions with: 
                l(1) =   0
                l(2) =   0
                l(3) =   1
                l(4) =   1
     Q(r) pseudized with 0 coefficients 


     atomic species   valence    mass     pseudopotential
        Ba            10.00   137.32700     Ba( 1.00)
        Bi            15.00   208.98040     Bi( 1.00)
        F              7.00    18.99840     F ( 1.00)
        O              6.00    15.99900     O ( 1.00)

     16 Sym. Ops., with inversion, found



   Cartesian axes

     site n.     atom                  positions (alat units)
         1           Ba  tau(   1) = (   0.5000000   0.5000000   0.5000000  )
         2           Bi  tau(   2) = (   0.0000000   0.0000000   0.0000000  )
         3           O   tau(   3) = (   0.0000000   0.0000000   0.5000000  )
         4           O   tau(   4) = (   0.5000000   0.0000000   0.0000000  )
         5           F   tau(   5) = (   0.0000000   0.5000000   0.0000000  )

     number of k points=    18  Gaussian smearing, width (Ry)=  0.0200
                       cart. coord. in units 2pi/alat
        k(    1) = (   0.0000000   0.0000000   0.0000000), wk =   0.0160000
        k(    2) = (   0.0000000   0.0000000   0.2000000), wk =   0.0640000
        k(    3) = (   0.0000000   0.0000000   0.4000000), wk =   0.0640000
        k(    4) = (   0.0000000   0.2000000   0.2000000), wk =   0.1280000
        k(    5) = (   0.0000000   0.2000000   0.4000000), wk =   0.1280000
        k(    6) = (   0.0000000   0.4000000   0.4000000), wk =   0.1280000
        k(    7) = (   0.2000000   0.2000000   0.2000000), wk =   0.1280000
        k(    8) = (   0.2000000   0.2000000   0.4000000), wk =   0.2560000
        k(    9) = (   0.2000000   0.4000000   0.4000000), wk =   0.2560000
        k(   10) = (   0.4000000   0.4000000   0.4000000), wk =   0.1280000
        k(   11) = (   0.0000000   0.2000000   0.0000000), wk =   0.0320000
        k(   12) = (   0.0000000   0.4000000   0.0000000), wk =   0.0320000
        k(   13) = (   0.2000000   0.0000000   0.2000000), wk =   0.0640000
        k(   14) = (   0.2000000   0.4000000   0.0000000), wk =   0.1280000
        k(   15) = (   0.4000000   0.0000000   0.2000000), wk =   0.1280000
        k(   16) = (   0.4000000   0.0000000   0.4000000), wk =   0.0640000
        k(   17) = (   0.2000000   0.4000000   0.2000000), wk =   0.1280000
        k(   18) = (   0.4000000   0.2000000   0.4000000), wk =   0.1280000

     Dense  grid:   150699 G-vectors     FFT dimensions: (  72,  72,  72)

     Smooth grid:    53355 G-vectors     FFT dimensions: (  48,  48,  48)

     Estimated max dynamical RAM per process >     341.97 MB

     Estimated total dynamical RAM >     683.94 MB

     Initial potential from superposition of free atoms

     starting charge      43.9822, renormalised to      44.0000
     Starting wfcs are   26 randomized atomic wfcs
     Checking if some PAW data can be deallocated... 

     total cpu time spent up to now is        6.9 secs

     Self-consistent Calculation

     iteration #  1     ecut=    70.00 Ry     beta= 0.70
     Davidson diagonalization with overlap
     ethr =  1.00E-02,  avg # of iterations =  2.7

     total cpu time spent up to now is       14.7 secs

     total energy              =   -1484.40367530 Ry
     estimated scf accuracy    <       1.85368459 Ry

     iteration #  2     ecut=    70.00 Ry     beta= 0.70
     Davidson diagonalization with overlap
     ethr =  4.21E-03,  avg # of iterations =  8.4

     total cpu time spent up to now is       25.0 secs

     total energy              =   -1483.70695581 Ry
     estimated scf accuracy    <      10.61735474 Ry

     iteration #  3     ecut=    70.00 Ry     beta= 0.70
     Davidson diagonalization with overlap
     ethr =  4.21E-03,  avg # of iterations =  5.5

     total cpu time spent up to now is       34.0 secs

     total energy              =   -1485.51699916 Ry
     estimated scf accuracy    <       0.26442543 Ry

     iteration #  4     ecut=    70.00 Ry     beta= 0.70
     Davidson diagonalization with overlap
     ethr =  6.01E-04,  avg # of iterations =  3.0

     total cpu time spent up to now is       41.6 secs

     total energy              =   -1485.55094452 Ry
     estimated scf accuracy    <       0.05616609 Ry

     iteration #  5     ecut=    70.00 Ry     beta= 0.70
     Davidson diagonalization with overlap
     ethr =  1.28E-04,  avg # of iterations =  5.7

     total cpu time spent up to now is       49.5 secs

     total energy              =   -1485.54009946 Ry
     estimated scf accuracy    <       0.03203775 Ry

     iteration #  6     ecut=    70.00 Ry     beta= 0.70
     Davidson diagonalization with overlap
     ethr =  7.28E-05,  avg # of iterations =  5.1

     total cpu time spent up to now is       57.9 secs

     total energy              =   -1485.54705422 Ry
     estimated scf accuracy    <       0.00093223 Ry

     iteration #  7     ecut=    70.00 Ry     beta= 0.70
     Davidson diagonalization with overlap
     c_bands:  1 eigenvalues not converged
     c_bands:  1 eigenvalues not converged
     c_bands:  1 eigenvalues not converged
     c_bands:  1 eigenvalues not converged
     c_bands:  1 eigenvalues not converged
     c_bands:  1 eigenvalues not converged
     c_bands:  1 eigenvalues not converged
     ethr =  2.12E-06,  avg # of iterations = 16.7

     total cpu time spent up to now is       70.6 secs

     total energy              =   -1485.54784037 Ry
     estimated scf accuracy    <       0.00045464 Ry

     iteration #  8     ecut=    70.00 Ry     beta= 0.70
     Davidson diagonalization with overlap
     c_bands:  1 eigenvalues not converged
     ethr =  1.03E-06,  avg # of iterations =  3.7

     total cpu time spent up to now is       77.9 secs

     total energy              =   -1485.54785999 Ry
     estimated scf accuracy    <       0.00007515 Ry

     iteration #  9     ecut=    70.00 Ry     beta= 0.70
     Davidson diagonalization with overlap
     ethr =  1.71E-07,  avg # of iterations =  5.9

     total cpu time spent up to now is       86.4 secs

     total energy              =   -1485.54790162 Ry
     estimated scf accuracy    <       0.00002786 Ry

     iteration # 10     ecut=    70.00 Ry     beta= 0.70
     Davidson diagonalization with overlap
     ethr =  6.33E-08,  avg # of iterations =  1.3

     total cpu time spent up to now is       93.1 secs

     total energy              =   -1485.54789873 Ry
     estimated scf accuracy    <       0.00001194 Ry

     iteration # 11     ecut=    70.00 Ry     beta= 0.70
     Davidson diagonalization with overlap
     ethr =  2.71E-08,  avg # of iterations =  4.8

     total cpu time spent up to now is      101.2 secs

     total energy              =   -1485.54790221 Ry
     estimated scf accuracy    <       0.00000041 Ry

     iteration # 12     ecut=    70.00 Ry     beta= 0.70
     Davidson diagonalization with overlap
     ethr =  9.31E-10,  avg # of iterations =  5.1

     total cpu time spent up to now is      110.0 secs

     total energy              =   -1485.54790256 Ry
     estimated scf accuracy    <       0.00000012 Ry

     iteration # 13     ecut=    70.00 Ry     beta= 0.70
     Davidson diagonalization with overlap
     ethr =  2.62E-10,  avg # of iterations =  4.0

     total cpu time spent up to now is      117.6 secs

     End of self-consistent calculation

          k = 0.0000 0.0000 0.0000 (  6667 PWs)   bands (ev):

   -19.7061 -16.2499 -14.0668 -14.0668 -14.0509 -13.8754 -13.7765  -8.6031
    -7.4684  -4.8220  -4.8220  -4.6395   0.6339   0.9753   2.5024   2.5024
     4.1965   4.1965   6.3257   6.7341   6.9867   6.9867  10.7742  10.8443
    11.6209  12.5715

          k = 0.0000 0.0000 0.2000 (  6691 PWs)   bands (ev):

   -19.7016 -16.2527 -14.0683 -14.0668 -14.0291 -13.8769 -13.7654  -8.5360
    -7.6212  -4.8160  -4.8088  -4.6273  -0.0440   0.9769   2.4522   2.6157
     4.2521   5.1651   6.3029   6.6561   6.9140   6.9433  10.9932  11.3683
    12.0620  12.6036

          k = 0.0000 0.0000 0.4000 (  6636 PWs)   bands (ev):

   -19.6943 -16.2573 -14.0706 -14.0667 -13.9977 -13.8792 -13.7419  -8.3225
    -7.9750  -4.8091  -4.7873  -4.6073  -0.7181   0.9789   2.3710   2.5875
     4.3498   6.0161   6.2130   6.6017   6.7920   7.8414  11.0826  12.2191
    12.6468  12.7581

          k = 0.0000 0.2000 0.2000 (  6685 PWs)   bands (ev):

   -19.6984 -16.1435 -14.0699 -14.0685 -14.0298 -13.9039 -13.8768  -8.5975
    -7.6153  -4.8267  -4.7993  -4.6128  -0.8212   2.2076   2.5576   2.6784
     4.1138   5.0843   6.1411   6.5227   6.8173   6.9639  11.2850  11.6299
    12.4402  12.6472

          k = 0.0000 0.2000 0.4000 (  6677 PWs)   bands (ev):

   -19.6915 -16.1482 -14.0721 -14.0684 -14.0044 -13.8791 -13.8764  -8.3518
    -7.9763  -4.8450  -4.7799  -4.6192  -1.3522   2.0975   2.4824   2.6014
     4.2312   6.0151   6.2928   6.4922   6.6716   7.9103  11.3919  12.2400
    12.6198  12.6628

          k = 0.0000 0.4000 0.4000 (  6668 PWs)   bands (ev):

   -19.6869 -15.9357 -14.1628 -14.0745 -14.0712 -13.9829 -13.8789  -8.3982
    -7.9780  -4.8996  -4.7679  -4.6410  -1.8841   2.6213   2.7056   3.5969
     3.9956   5.9817   6.3241   6.3790   6.4916   8.1043  11.1482  12.0646
    12.5473  12.6956

          k = 0.2000 0.2000 0.2000 (  6673 PWs)   bands (ev):

   -19.6946 -16.1450 -14.0700 -14.0698 -14.0045 -13.8965 -13.8782  -8.5305
    -7.7322  -4.8318  -4.8164  -4.6124  -1.2682   2.0436   2.6239   2.7109
     4.7481   5.4175   6.2278   6.4909   6.7626   7.0908  11.5636  11.7143
    12.2952  12.5327

          k = 0.2000 0.2000 0.4000 (  6674 PWs)   bands (ev):

   -19.6883 -16.1473 -14.0722 -14.0699 -13.9726 -13.8804 -13.8743  -8.3275
    -8.0204  -4.8559  -4.8188  -4.6215  -1.8223   1.9753   2.6276   2.6957
     5.1289   5.8708   6.2821   6.4527   7.0286   7.9868  11.5352  11.5414
    12.5862  12.7176

          k = 0.2000 0.4000 0.4000 (  6640 PWs)   bands (ev):

   -19.6839 -15.9347 -14.1508 -14.0748 -14.0727 -13.9630 -13.8804  -8.3538
    -8.0073  -4.9099  -4.8302  -4.6687  -2.3280   2.6698   2.7729   3.3778
     5.0576   6.0360   6.2281   6.4554   6.9303   8.1782  10.4379  11.6684
    12.1975  12.7035

          k = 0.4000 0.4000 0.4000 (  6683 PWs)   bands (ev):

   -19.6790 -15.9331 -14.1361 -14.0754 -14.0751 -13.9251 -13.8829  -8.2371
    -8.1003  -4.9290  -4.9205  -4.7179  -2.9144   2.7731   2.8273   3.3165
     6.0023   6.3811   6.4736   6.5972   7.4082   8.8020   9.6562  10.8795
    11.1551  13.6486

          k = 0.0000 0.2000 0.0000 (  6691 PWs)   bands (ev):

   -19.7027 -16.1407 -14.0686 -14.0686 -14.0508 -13.9149 -13.8754  -8.6786
    -7.4654  -4.8111  -4.8111  -4.6140  -0.3871   2.5048   2.6038   2.6038
     4.0484   4.0484   6.0312   6.5378   6.9017   6.9017  11.0298  11.2689
    12.3124  13.0282

          k = 0.0000 0.4000 0.0000 (  6636 PWs)   bands (ev):

   -19.6973 -15.9277 -14.1760 -14.0714 -14.0714 -14.0505 -13.8752  -8.7941
    -7.4604  -4.7934  -4.7934  -4.5777  -0.9510   2.8242   2.8242   3.7537
     3.7537   4.2082   5.4245   6.2689   6.7791   6.7791  11.1378  11.9610
    12.7522  13.0649

          k = 0.2000 0.0000 0.2000 (  6685 PWs)   bands (ev):

   -19.6976 -16.2542 -14.0683 -14.0682 -14.0047 -13.8782 -13.7559  -8.4829
    -7.7428  -4.8236  -4.8015  -4.6166  -0.6414   0.9856   2.5597   2.6449
     4.8584   5.4681   6.3029   6.5549   6.7216   7.1253  11.5239  11.5251
    12.3359  12.5212

          k = 0.2000 0.4000 0.0000 (  6677 PWs)   bands (ev):

   -19.6933 -15.9308 -14.1696 -14.0727 -14.0713 -14.0265 -13.8767  -8.6926
    -7.6056  -4.8355  -4.7837  -4.6016  -1.3701   2.7512   2.7790   3.6191
     3.8394   5.1530   5.7142   6.3429   6.6760   6.9937  11.2151  12.1304
    12.7281  12.8808

          k = 0.4000 0.0000 0.2000 (  6677 PWs)   bands (ev):

   -19.6911 -16.2565 -14.0705 -14.0681 -13.9690 -13.8804 -13.7355  -8.3110
    -8.0283  -4.8230  -4.8039  -4.5991  -1.2929   0.9992   2.5708   2.6599
     5.1925   5.7897   6.2348   6.4773   7.0634   7.9310  11.5025  12.1901
    12.5053  12.7182

          k = 0.4000 0.0000 0.4000 (  6668 PWs)   bands (ev):

   -19.6860 -16.2553 -14.0704 -14.0703 -13.9252 -13.8823 -13.7206  -8.2594
    -8.1505  -4.8417  -4.8332  -4.5858  -1.9602   1.0324   2.7143   2.7599
     5.5153   6.2643   6.2977   6.4529   7.4048   8.6558  11.7861  11.9110
    12.3453  12.6259

          k = 0.2000 0.4000 0.2000 (  6674 PWs)   bands (ev):

   -19.6897 -15.9323 -14.1608 -14.0729 -14.0724 -14.0043 -13.8781  -8.6049
    -7.7149  -4.8453  -4.8222  -4.6265  -1.7928   2.6802   2.8292   3.4152
     4.5698   5.4922   5.9383   6.4109   6.8700   6.9932  10.9233  12.2643
    12.6713  12.8626

          k = 0.4000 0.2000 0.4000 (  6640 PWs)   bands (ev):

   -19.6833 -16.1459 -14.0722 -14.0722 -13.9252 -13.8825 -13.8654  -8.2509
    -8.1316  -4.8748  -4.8686  -4.6351  -2.4219   1.9372   2.7393   2.7855
     5.6924   6.3316   6.3605   6.4978   7.4137   8.6769  10.8987  11.4282
    11.7064  13.0890

     the Fermi energy is     9.2361 ev

!    total energy              =   -1485.54790258 Ry
     total all-electron energy =    -59834.205516 Ry
     estimated scf accuracy    <          8.4E-09 Ry
     smearing contrib. (-TS)   =      -0.00013768 Ry
     internal energy E=F+TS    =   -1485.54776490 Ry

     The total energy is F=E-TS. E is the sum of the following terms:
     one-electron contribution =    -114.81135563 Ry
     hartree contribution      =      87.60128597 Ry
     xc contribution           =     -77.26862838 Ry
     ewald contribution        =    -219.18203370 Ry
     one-center paw contrib.   =   -1161.88703315 Ry

     convergence has been achieved in  13 iterations

     Forces acting on atoms (cartesian axes, Ry/au):

     atom    1 type  1   force =     0.00000000    0.00000000    0.00000000
     atom    2 type  2   force =     0.00000000    0.00000000    0.00000000
     atom    3 type  4   force =     0.00000000    0.00000000    0.00000000
     atom    4 type  4   force =     0.00000000    0.00000000    0.00000000
     atom    5 type  3   force =     0.00000000    0.00000000    0.00000000

     Total force =     0.000000     Total SCF correction =     0.000000


     Computing stress (Cartesian axis) and pressure

          total   stress  (Ry/bohr**3)                   (kbar)     P=      -19.42
  -0.00012816   0.00000000   0.00000000          -18.85        0.00        0.00
   0.00000000  -0.00013978   0.00000000            0.00      -20.56        0.00
   0.00000000   0.00000000  -0.00012816            0.00        0.00      -18.85


     BFGS Geometry Optimization
     Energy error            =      0.0E+00 Ry
     Gradient error          =      0.0E+00 Ry/Bohr

     bfgs converged in   1 scf cycles and   0 bfgs steps
     (criteria: energy <  1.0E-04 Ry, force <  1.0E-03 Ry/Bohr)

     End of BFGS Geometry Optimization

     Final energy             =   -1485.5479025773 Ry
Begin final coordinates

ATOMIC_POSITIONS (angstrom)
Ba            2.3200000000        2.3200000000        2.3200000000
Bi            0.0000000000        0.0000000000        0.0000000000
O             0.0000000000        0.0000000000        2.3200000000
O             2.3200000000        0.0000000000        0.0000000000
F             0.0000000000        2.3200000000        0.0000000000
End final coordinates



     init_run     :      5.20s CPU      5.68s WALL (       1 calls)
     electrons    :    100.91s CPU    110.77s WALL (       1 calls)
     forces       :      1.69s CPU      1.96s WALL (       1 calls)
     stress       :      9.99s CPU     11.00s WALL (       1 calls)

     Called by init_run:
     wfcinit      :      1.61s CPU      1.70s WALL (       1 calls)
     potinit      :      1.10s CPU      1.20s WALL (       1 calls)
     hinit0       :      1.77s CPU      1.84s WALL (       1 calls)

     Called by electrons:
     c_bands      :     65.47s CPU     67.72s WALL (      13 calls)
     sum_band     :     18.26s CPU     22.73s WALL (      13 calls)
     v_of_rho     :      2.31s CPU      2.46s WALL (      14 calls)
     newd         :      8.21s CPU     11.30s WALL (      14 calls)
     PAW_pot      :      7.39s CPU      7.56s WALL (      14 calls)
     mix_rho      :      0.33s CPU      0.33s WALL (      13 calls)

     Called by c_bands:
     init_us_2    :      1.67s CPU      1.74s WALL (     522 calls)
     init_us_2:cp :      1.67s CPU      1.74s WALL (     522 calls)
     cegterg      :     62.03s CPU     64.17s WALL (     234 calls)

     Called by *egterg:
     cdiaghg      :      1.97s CPU      2.03s WALL (    1528 calls)
     h_psi        :     47.41s CPU     49.12s WALL (    1546 calls)
     s_psi        :      2.70s CPU      2.80s WALL (    1546 calls)
     g_psi        :      0.31s CPU      0.32s WALL (    1294 calls)

     Called by h_psi:
     h_psi:calbec :      3.09s CPU      3.19s WALL (    1546 calls)
     vloc_psi     :     40.98s CPU     42.48s WALL (    1546 calls)
     add_vuspsi   :      3.04s CPU      3.14s WALL (    1546 calls)

     General routines
     calbec       :      4.27s CPU      4.41s WALL (    1870 calls)
     fft          :      1.87s CPU      1.94s WALL (     205 calls)
     ffts         :      0.32s CPU      0.33s WALL (      27 calls)
     fftw         :     42.26s CPU     43.87s WALL (   41164 calls)
     interpolate  :      0.42s CPU      0.43s WALL (      14 calls)

     Parallel routines

     PWSCF        :   1m58.89s CPU   2m10.60s WALL


   This run was terminated on:  23:10: 0   6May2024            

=------------------------------------------------------------------------------=
   JOB DONE.
=------------------------------------------------------------------------------=
