
     Program PWSCF v.7.1 starts on  6May2024 at  8: 2:44 

     This program is part of the open-source Quantum ESPRESSO suite
     for quantum simulation of materials; please cite
         "P. Giannozzi et al., J. Phys.:Condens. Matter 21 395502 (2009);
         "P. Giannozzi et al., J. Phys.:Condens. Matter 29 465901 (2017);
         "P. Giannozzi et al., J. Chem. Phys. 152 154105 (2020);
          URL http://www.quantum-espresso.org", 
     in publications or presentations arising from this work. More details at
     http://www.quantum-espresso.org/quote

     Parallel version (MPI), running on     2 processors

     MPI processes distributed on     1 nodes
     13687 MiB available memory on the printing compute node when the environment starts

     Waiting for input...
     Reading input from standard input
Warning: card &CELL ignored
Warning: card / ignored

     Current dimensions of program PWSCF are:
     Max number of different atomic species (ntypx) = 10
     Max number of k-points (npk) =  40000
     Max angular momentum in pseudopotentials (lmaxx) =  4
     file Ba.pbe-spn-kjpaw_psl.1.0.0.UPF: wavefunction(s)  5S 6S renormalized
     file Bi.pbe-dn-kjpaw_psl.1.0.0.UPF: wavefunction(s)  6P 5D renormalized
     file N.pbe-n-kjpaw_psl.1.0.0.UPF: wavefunction(s)  2S renormalized
     file O.pbe-n-kjpaw_psl.1.0.0.UPF: wavefunction(s)  2S 2P renormalized
     Message from routine setup:
     using ibrav=0 with symmetry is DISCOURAGED, use correct ibrav instead

     R & G space division:  proc/nbgrp/npool/nimage =       2
     Subspace diagonalization in iterative solution of the eigenvalue problem:
     a serial algorithm will be used


     Parallelization info
     --------------------
     sticks:   dense  smooth     PW     G-vecs:    dense   smooth      PW
     Min        1562     782    218                65744    23290    3488
     Max        1563     783    219                65747    23295    3491
     Sum        3125    1565    437               131491    46585    6979

     Using Slab Decomposition



     bravais-lattice index     =            0
     lattice parameter (alat)  =       8.3715  a.u.
     unit-cell volume          =     586.6888 (a.u.)^3
     number of atoms/cell      =            5
     number of atomic types    =            4
     number of electrons       =        42.00
     number of Kohn-Sham states=           21
     kinetic-energy cutoff     =      70.0000  Ry
     charge density cutoff     =     560.0000  Ry
     scf convergence threshold =      1.0E-07
     mixing beta               =       0.7000
     number of iterations used =            8  plain     mixing
     Exchange-correlation= SLA  PW   PBX  PBC
                           (   1   4   3   4   0   0   0)

     celldm(1)=   8.371487  celldm(2)=   0.000000  celldm(3)=   0.000000
     celldm(4)=   0.000000  celldm(5)=   0.000000  celldm(6)=   0.000000

     crystal axes: (cart. coord. in units of alat)
               a(1) = (   1.000000   0.000000   0.000000 )  
               a(2) = (   0.000000   1.000000   0.000000 )  
               a(3) = (   0.000000   0.000000   1.000000 )  

     reciprocal axes: (cart. coord. in units 2 pi/alat)
               b(1) = (  1.000000  0.000000  0.000000 )  
               b(2) = (  0.000000  1.000000  0.000000 )  
               b(3) = (  0.000000  0.000000  1.000000 )  


     PseudoPot. # 1 for Ba read from file:
     /home/bond/Software/qe-7.1/pseudo/Ba.pbe-spn-kjpaw_psl.1.0.0.UPF
     MD5 check sum: 7cfe25f1fe7574a4710541d5a11d6531
     Pseudo is Projector augmented-wave + core cor, Zval = 10.0
     Generated using &quot;atomic&quot; code by A. Dal Corso  v.6.2.2
     Shape of augmentation charge: PSQ
     Using radial grid of 1251 points,  7 beta functions with: 
                l(1) =   0
                l(2) =   0
                l(3) =   0
                l(4) =   1
                l(5) =   1
                l(6) =   2
                l(7) =   2
     Q(r) pseudized with 0 coefficients 


     PseudoPot. # 2 for Bi read from file:
     /home/bond/Software/qe-7.1/pseudo/Bi.pbe-dn-kjpaw_psl.1.0.0.UPF
     MD5 check sum: 266ded784ae3bc462508ed03f0f37963
     Pseudo is Projector augmented-wave + core cor, Zval = 15.0
     Generated using &quot;atomic&quot; code by A. Dal Corso  v.6.2.2
     Shape of augmentation charge: PSQ
     Using radial grid of 1283 points,  6 beta functions with: 
                l(1) =   0
                l(2) =   0
                l(3) =   1
                l(4) =   1
                l(5) =   2
                l(6) =   2
     Q(r) pseudized with 0 coefficients 


     PseudoPot. # 3 for N  read from file:
     /home/bond/Software/qe-7.1/pseudo/N.pbe-n-kjpaw_psl.1.0.0.UPF
     MD5 check sum: 14c48229446f9f2d411169a3abcbc3fa
     Pseudo is Projector augmented-wave + core cor, Zval =  5.0
     Generated using &quot;atomic&quot; code by A. Dal Corso  v.6.3
     Shape of augmentation charge: PSQ
     Using radial grid of 1085 points,  4 beta functions with: 
                l(1) =   0
                l(2) =   0
                l(3) =   1
                l(4) =   1
     Q(r) pseudized with 0 coefficients 


     PseudoPot. # 4 for O  read from file:
     /home/bond/Software/qe-7.1/pseudo/O.pbe-n-kjpaw_psl.1.0.0.UPF
     MD5 check sum: e99d9cef9b487d1ca56f5b95ecd0fd7a
     Pseudo is Projector augmented-wave + core cor, Zval =  6.0
     Generated using &quot;atomic&quot; code by A. Dal Corso  v.6.3
     Shape of augmentation charge: PSQ
     Using radial grid of 1095 points,  4 beta functions with: 
                l(1) =   0
                l(2) =   0
                l(3) =   1
                l(4) =   1
     Q(r) pseudized with 0 coefficients 


     atomic species   valence    mass     pseudopotential
        Ba            10.00   137.32700     Ba( 1.00)
        Bi            15.00   208.98040     Bi( 1.00)
        N              5.00    14.00700     N ( 1.00)
        O              6.00    15.99900     O ( 1.00)

     16 Sym. Ops., with inversion, found



   Cartesian axes

     site n.     atom                  positions (alat units)
         1           Ba  tau(   1) = (   0.5000000   0.5000000   0.5000000  )
         2           Bi  tau(   2) = (   0.0000000   0.0000000   0.0000000  )
         3           O   tau(   3) = (   0.0000000   0.0000000   0.5000000  )
         4           O   tau(   4) = (   0.5000000   0.0000000   0.0000000  )
         5           N   tau(   5) = (   0.0000000   0.5000000   0.0000000  )

     number of k points=    18
                       cart. coord. in units 2pi/alat
        k(    1) = (   0.0000000   0.0000000   0.0000000), wk =   0.0160000
        k(    2) = (   0.0000000   0.0000000   0.2000000), wk =   0.0640000
        k(    3) = (   0.0000000   0.0000000   0.4000000), wk =   0.0640000
        k(    4) = (   0.0000000   0.2000000   0.2000000), wk =   0.1280000
        k(    5) = (   0.0000000   0.2000000   0.4000000), wk =   0.1280000
        k(    6) = (   0.0000000   0.4000000   0.4000000), wk =   0.1280000
        k(    7) = (   0.2000000   0.2000000   0.2000000), wk =   0.1280000
        k(    8) = (   0.2000000   0.2000000   0.4000000), wk =   0.2560000
        k(    9) = (   0.2000000   0.4000000   0.4000000), wk =   0.2560000
        k(   10) = (   0.4000000   0.4000000   0.4000000), wk =   0.1280000
        k(   11) = (   0.0000000   0.2000000   0.0000000), wk =   0.0320000
        k(   12) = (   0.0000000   0.4000000   0.0000000), wk =   0.0320000
        k(   13) = (   0.2000000   0.0000000   0.2000000), wk =   0.0640000
        k(   14) = (   0.2000000   0.4000000   0.0000000), wk =   0.1280000
        k(   15) = (   0.4000000   0.0000000   0.2000000), wk =   0.1280000
        k(   16) = (   0.4000000   0.0000000   0.4000000), wk =   0.0640000
        k(   17) = (   0.2000000   0.4000000   0.2000000), wk =   0.1280000
        k(   18) = (   0.4000000   0.2000000   0.4000000), wk =   0.1280000

     Dense  grid:   131491 G-vectors     FFT dimensions: (  64,  64,  64)

     Smooth grid:    46585 G-vectors     FFT dimensions: (  45,  45,  45)

     Estimated max dynamical RAM per process >     293.22 MB

     Estimated total dynamical RAM >     586.44 MB

     Initial potential from superposition of free atoms

     starting charge      41.9822, renormalised to      42.0000
     Starting wfcs are   26 randomized atomic wfcs
     Checking if some PAW data can be deallocated... 

     total cpu time spent up to now is        6.2 secs

     Self-consistent Calculation

     iteration #  1     ecut=    70.00 Ry     beta= 0.70
     Davidson diagonalization with overlap
     ethr =  1.00E-02,  avg # of iterations =  1.9

     total cpu time spent up to now is       11.7 secs

     total energy              =   -1453.12740443 Ry
     estimated scf accuracy    <       1.62986519 Ry

     iteration #  2     ecut=    70.00 Ry     beta= 0.70
     Davidson diagonalization with overlap
     ethr =  3.88E-03,  avg # of iterations =  5.7

     total cpu time spent up to now is       19.7 secs

     total energy              =   -1453.70813548 Ry
     estimated scf accuracy    <       2.66617719 Ry

     iteration #  3     ecut=    70.00 Ry     beta= 0.70
     Davidson diagonalization with overlap
     ethr =  3.88E-03,  avg # of iterations =  2.7

     total cpu time spent up to now is       25.9 secs

     total energy              =   -1453.86035928 Ry
     estimated scf accuracy    <       0.44186953 Ry

     iteration #  4     ecut=    70.00 Ry     beta= 0.70
     Davidson diagonalization with overlap
     ethr =  1.05E-03,  avg # of iterations =  6.0

     total cpu time spent up to now is       33.8 secs

     total energy              =   -1454.13317671 Ry
     estimated scf accuracy    <       0.08049509 Ry

     iteration #  5     ecut=    70.00 Ry     beta= 0.70
     Davidson diagonalization with overlap
     ethr =  1.92E-04,  avg # of iterations =  5.1

     total cpu time spent up to now is       41.0 secs

     total energy              =   -1454.13220772 Ry
     estimated scf accuracy    <       0.11732690 Ry

     iteration #  6     ecut=    70.00 Ry     beta= 0.70
     Davidson diagonalization with overlap
     ethr =  1.92E-04,  avg # of iterations =  1.1

     total cpu time spent up to now is       47.2 secs

     total energy              =   -1454.10337847 Ry
     estimated scf accuracy    <       0.06350279 Ry

     iteration #  7     ecut=    70.00 Ry     beta= 0.70
     Davidson diagonalization with overlap
     ethr =  1.51E-04,  avg # of iterations =  5.2

     total cpu time spent up to now is       55.7 secs

     total energy              =   -1454.13027621 Ry
     estimated scf accuracy    <       0.00922261 Ry

     iteration #  8     ecut=    70.00 Ry     beta= 0.70
     Davidson diagonalization with overlap
     ethr =  2.20E-05,  avg # of iterations =  6.6

     total cpu time spent up to now is       63.5 secs

     total energy              =   -1454.13277863 Ry
     estimated scf accuracy    <       0.01172734 Ry

     iteration #  9     ecut=    70.00 Ry     beta= 0.70
     Davidson diagonalization with overlap
     ethr =  2.20E-05,  avg # of iterations =  1.3

     total cpu time spent up to now is       70.1 secs

     total energy              =   -1454.13214776 Ry
     estimated scf accuracy    <       0.01025292 Ry

     iteration # 10     ecut=    70.00 Ry     beta= 0.70
     Davidson diagonalization with overlap
     ethr =  2.20E-05,  avg # of iterations =  1.2

     total cpu time spent up to now is       76.4 secs

     total energy              =   -1454.12982461 Ry
     estimated scf accuracy    <       0.00831151 Ry

     iteration # 11     ecut=    70.00 Ry     beta= 0.70
     Davidson diagonalization with overlap
     ethr =  1.98E-05,  avg # of iterations =  1.9

     total cpu time spent up to now is       83.1 secs

     total energy              =   -1454.13059913 Ry
     estimated scf accuracy    <       0.00330008 Ry

     iteration # 12     ecut=    70.00 Ry     beta= 0.70
     Davidson diagonalization with overlap
     ethr =  7.86E-06,  avg # of iterations =  2.3

     total cpu time spent up to now is       89.8 secs

     total energy              =   -1454.13018941 Ry
     estimated scf accuracy    <       0.00324725 Ry

     iteration # 13     ecut=    70.00 Ry     beta= 0.70
     Davidson diagonalization with overlap
     ethr =  7.73E-06,  avg # of iterations =  4.0

     total cpu time spent up to now is       97.1 secs

     total energy              =   -1454.13045852 Ry
     estimated scf accuracy    <       0.00080634 Ry

     iteration # 14     ecut=    70.00 Ry     beta= 0.70
     Davidson diagonalization with overlap
     ethr =  1.92E-06,  avg # of iterations =  6.2

     total cpu time spent up to now is      105.6 secs

     total energy              =   -1454.13101397 Ry
     estimated scf accuracy    <       0.00031529 Ry

     iteration # 15     ecut=    70.00 Ry     beta= 0.70
     Davidson diagonalization with overlap
     ethr =  7.51E-07,  avg # of iterations =  3.1

     total cpu time spent up to now is      112.3 secs

     total energy              =   -1454.13084967 Ry
     estimated scf accuracy    <       0.00031948 Ry

     iteration # 16     ecut=    70.00 Ry     beta= 0.70
     Davidson diagonalization with overlap
     ethr =  7.51E-07,  avg # of iterations =  5.3

     total cpu time spent up to now is      120.4 secs

     total energy              =   -1454.13094066 Ry
     estimated scf accuracy    <       0.00001423 Ry

     iteration # 17     ecut=    70.00 Ry     beta= 0.70
     Davidson diagonalization with overlap
     c_bands:  1 eigenvalues not converged
     ethr =  3.39E-08,  avg # of iterations =  8.1

     total cpu time spent up to now is      130.4 secs

     total energy              =   -1454.13093892 Ry
     estimated scf accuracy    <       0.00002597 Ry

     iteration # 18     ecut=    70.00 Ry     beta= 0.70
     Davidson diagonalization with overlap
     ethr =  3.39E-08,  avg # of iterations = 10.2

     total cpu time spent up to now is      142.7 secs

     total energy              =   -1454.13097205 Ry
     estimated scf accuracy    <       0.00013612 Ry

     iteration # 19     ecut=    70.00 Ry     beta= 0.70
     Davidson diagonalization with overlap
     ethr =  3.39E-08,  avg # of iterations =  1.2

     total cpu time spent up to now is      148.9 secs

     total energy              =   -1454.13094151 Ry
     estimated scf accuracy    <       0.00011356 Ry

     iteration # 20     ecut=    70.00 Ry     beta= 0.70
     Davidson diagonalization with overlap
     ethr =  3.39E-08,  avg # of iterations =  7.2

     total cpu time spent up to now is      158.3 secs

     total energy              =   -1454.13095278 Ry
     estimated scf accuracy    <       0.00000741 Ry

     iteration # 21     ecut=    70.00 Ry     beta= 0.70
     Davidson diagonalization with overlap
     ethr =  1.76E-08,  avg # of iterations =  2.3

     total cpu time spent up to now is      165.1 secs

     total energy              =   -1454.13095251 Ry
     estimated scf accuracy    <       0.00000361 Ry

     iteration # 22     ecut=    70.00 Ry     beta= 0.70
     Davidson diagonalization with overlap
     ethr =  8.58E-09,  avg # of iterations =  3.0

     total cpu time spent up to now is      172.5 secs

     total energy              =   -1454.13095236 Ry
     estimated scf accuracy    <       0.00000125 Ry

     iteration # 23     ecut=    70.00 Ry     beta= 0.70
     Davidson diagonalization with overlap
     ethr =  2.97E-09,  avg # of iterations =  6.5

     total cpu time spent up to now is      182.0 secs

     total energy              =   -1454.13095333 Ry
     estimated scf accuracy    <       0.00000065 Ry

     iteration # 24     ecut=    70.00 Ry     beta= 0.70
     Davidson diagonalization with overlap
     ethr =  1.55E-09,  avg # of iterations =  2.7

     total cpu time spent up to now is      188.7 secs

     total energy              =   -1454.13095317 Ry
     estimated scf accuracy    <       0.00000029 Ry

     iteration # 25     ecut=    70.00 Ry     beta= 0.70
     Davidson diagonalization with overlap
     ethr =  6.86E-10,  avg # of iterations =  6.3

     total cpu time spent up to now is      198.1 secs

     total energy              =   -1454.13095330 Ry
     estimated scf accuracy    <       0.00000045 Ry

     iteration # 26     ecut=    70.00 Ry     beta= 0.70
     Davidson diagonalization with overlap
     ethr =  6.86E-10,  avg # of iterations =  4.7

     total cpu time spent up to now is      205.7 secs

     End of self-consistent calculation

          k = 0.0000 0.0000 0.0000 (  5743 PWs)   bands (ev):

   -17.0377 -13.4983 -13.3809 -13.1297 -13.0924 -13.0924  -8.5807  -6.7051
    -3.1120  -2.2063  -2.1615  -2.1615   3.9020   3.9020   3.9239   4.4971
     7.5755   7.6440   7.6440   8.1699   9.0310

          k = 0.0000 0.0000 0.2000 (  5794 PWs)   bands (ev):

   -17.0295 -13.4652 -13.3599 -13.1325 -13.0952 -13.0924  -8.4794  -6.9460
    -3.4115  -2.1785  -2.1332  -1.9775   2.5612   3.9120   4.5116   5.8254
     7.5014   7.5853   7.6351   8.0518   8.7746

          k = 0.0000 0.0000 0.4000 (  5798 PWs)   bands (ev):

   -17.0162 -13.4373 -13.2974 -13.1370 -13.0997 -13.0922  -8.1422  -7.5307
    -3.7159  -2.1328  -2.0865  -1.8574   2.0490   3.9229   4.5237   6.5220
     7.4840   7.4970   7.7883   7.8819   8.5900

          k = 0.0000 0.2000 0.2000 (  5794 PWs)   bands (ev):

   -17.0216 -13.4641 -13.3397 -13.1323 -13.0977 -13.0951  -8.4611  -6.9377
    -3.4792  -2.1568  -2.1089  -1.9638   1.3424   3.9343   5.1587   6.3067
     7.2770   7.4710   7.6592   8.7488   8.7890

          k = 0.0000 0.2000 0.4000 (  5795 PWs)   bands (ev):

   -17.0095 -13.4320 -13.2801 -13.1368 -13.1016 -13.0949  -8.1099  -7.5184
    -3.7449  -2.1701  -2.0691  -1.8540   0.7945   3.9950   5.9420   6.5440
     7.1192   7.3572   7.8041   8.5089   8.5668

          k = 0.0000 0.4000 0.4000 (  5808 PWs)   bands (ev):

   -16.9985 -13.4256 -13.2500 -13.1364 -13.1048 -13.0992  -8.0644  -7.4820
    -3.8094  -2.2325  -2.0405  -1.7713  -0.4378   4.1172   6.4355   6.9529
     7.1479   7.1801   7.9365   8.3670   9.1346

          k = 0.2000 0.2000 0.2000 (  5809 PWs)   bands (ev):

   -17.0145 -13.4184 -13.3296 -13.1350 -13.0979 -13.0975  -8.3665  -7.1109
    -3.6520  -2.1712  -2.1681  -1.9129   0.7283   4.8776   5.3658   6.3057
     7.2483   7.3683   7.7893   8.6442   8.8932

          k = 0.2000 0.2000 0.4000 (  5816 PWs)   bands (ev):

   -17.0030 -13.3745 -13.2800 -13.1391 -13.1018 -13.0977  -8.0613  -7.5665
    -3.8905  -2.2057  -2.1361  -2.0057   0.2615   5.1763   6.0994   6.4330
     7.1441   7.4521   7.8138   8.5276   8.7708

          k = 0.2000 0.4000 0.4000 (  5802 PWs)   bands (ev):

   -16.9924 -13.3679 -13.2492 -13.1393 -13.1056 -13.1021  -8.0159  -7.5337
    -3.7452  -2.2863  -2.1690  -1.9439  -1.0989   5.3231   6.6100   6.8927
     7.1519   7.4864   7.9249   8.7261   9.2042

          k = 0.4000 0.4000 0.4000 (  5800 PWs)   bands (ev):

   -16.9824 -13.2766 -13.2422 -13.1440 -13.1071 -13.1066  -7.8762  -7.6847
    -3.6631  -2.3618  -2.3304  -2.2695  -1.7981   6.7364   6.9675   7.0832
     7.1689   7.9493   8.1498   9.1743   9.3193

          k = 0.0000 0.2000 0.0000 (  5794 PWs)   bands (ev):

   -17.0291 -13.4980 -13.3607 -13.1296 -13.0953 -13.0953  -8.5690  -6.7012
    -3.2283  -2.1475  -2.1331  -2.1331   2.1697   3.8959   3.8959   6.2810
     7.3974   7.5427   7.5427   8.6788   8.9901

          k = 0.0000 0.4000 0.0000 (  5798 PWs)   bands (ev):

   -17.0150 -13.4975 -13.3278 -13.1295 -13.0998 -13.0998  -8.5472  -6.6949
    -3.3827  -2.1129  -2.0861  -2.0861   1.1020   3.8794   3.8794   6.6629
     7.1429   7.4036   7.4036   8.9243   8.9243

          k = 0.2000 0.0000 0.2000 (  5794 PWs)   bands (ev):

   -17.0219 -13.4187 -13.3511 -13.1350 -13.0951 -13.0950  -8.3889  -7.1218
    -3.6469  -2.1657  -2.1548  -1.9358   1.8547   4.5678   4.8654   6.1118
     7.3925   7.4033   7.8093   7.9153   8.8063

          k = 0.2000 0.4000 0.0000 (  5795 PWs)   bands (ev):

   -17.0087 -13.4628 -13.3065 -13.1321 -13.1017 -13.0995  -8.4293  -6.9227
    -3.5720  -2.1598  -2.0688  -1.9341   0.2747   3.9658   5.2839   6.6084
     7.1256   7.3108   7.5495   8.6943   8.9964

          k = 0.4000 0.0000 0.2000 (  5795 PWs)   bands (ev):

   -17.0095 -13.3808 -13.2966 -13.1389 -13.0995 -13.0949  -8.0910  -7.5818
    -3.9580  -2.1412  -2.1157  -1.9981   1.4322   4.6554   5.2763   6.3365
     7.3423   7.6161   7.6857   8.0030   8.6211

          k = 0.4000 0.0000 0.4000 (  5808 PWs)   bands (ev):

   -16.9987 -13.3042 -13.2769 -13.1420 -13.0992 -13.0992  -7.9386  -7.7331
    -4.3878  -2.2021  -2.1591  -2.0876   0.9839   4.9053   6.0992   6.8826
     7.1529   7.2740   8.1007   8.1575   8.5767

          k = 0.2000 0.4000 0.2000 (  5816 PWs)   bands (ev):

   -17.0025 -13.4179 -13.2945 -13.1349 -13.1026 -13.1012  -8.3277  -7.0931
    -3.6345  -2.2069  -2.1806  -1.8562  -0.4287   4.8934   5.7063   6.6393
     7.1200   7.2634   7.6637   8.6900   9.1257

          k = 0.4000 0.2000 0.4000 (  5802 PWs)   bands (ev):

   -16.9925 -13.2806 -13.2768 -13.1428 -13.1022 -13.1020  -7.9151  -7.7148
    -4.1937  -2.2512  -2.2398  -2.1622  -0.2250   6.2651   6.3337   6.9141
     7.1533   7.2549   8.1585   8.5421   8.8287

     highest occupied level (ev):     9.3193

!    total energy              =   -1454.13095329 Ry
     total all-electron energy =    -59743.674644 Ry
     estimated scf accuracy    <       0.00000007 Ry

     The total energy is the sum of the following terms:
     one-electron contribution =     -75.44902209 Ry
     hartree contribution      =      68.06734896 Ry
     xc contribution           =     -73.41720023 Ry
     ewald contribution        =    -214.62702088 Ry
     one-center paw contrib.   =   -1158.70505905 Ry

     convergence has been achieved in  26 iterations

     Forces acting on atoms (cartesian axes, Ry/au):

     atom    1 type  1   force =     0.00000000    0.00000000    0.00000000
     atom    2 type  2   force =     0.00000000    0.00000000    0.00000000
     atom    3 type  4   force =     0.00000000    0.00000000    0.00000000
     atom    4 type  4   force =     0.00000000    0.00000000    0.00000000
     atom    5 type  3   force =     0.00000000    0.00000000    0.00000000

     Total force =     0.000000     Total SCF correction =     0.000000


     Computing stress (Cartesian axis) and pressure

          total   stress  (Ry/bohr**3)                   (kbar)     P=      -23.17
  -0.00013880   0.00000000   0.00000000          -20.42        0.00        0.00
   0.00000000  -0.00019493   0.00000000            0.00      -28.68        0.00
   0.00000000   0.00000000  -0.00013880            0.00        0.00      -20.42


     init_run     :      4.62s CPU      5.06s WALL (       1 calls)
     electrons    :    173.82s CPU    199.43s WALL (       1 calls)
     forces       :      1.52s CPU      2.09s WALL (       1 calls)
     stress       :      8.03s CPU      9.95s WALL (       1 calls)

     Called by init_run:
     wfcinit      :      1.65s CPU      1.76s WALL (       1 calls)
     potinit      :      0.84s CPU      0.88s WALL (       1 calls)
     hinit0       :      1.54s CPU      1.60s WALL (       1 calls)

     Called by electrons:
     c_bands      :    108.68s CPU    117.27s WALL (      26 calls)
     sum_band     :     33.54s CPU     41.44s WALL (      26 calls)
     v_of_rho     :      3.03s CPU      3.29s WALL (      27 calls)
     newd         :     14.48s CPU     22.45s WALL (      27 calls)
     PAW_pot      :     14.32s CPU     15.34s WALL (      27 calls)
     mix_rho      :      0.55s CPU      0.59s WALL (      26 calls)

     Called by c_bands:
     init_us_2    :      2.76s CPU      3.00s WALL (     990 calls)
     init_us_2:cp :      2.76s CPU      3.00s WALL (     990 calls)
     cegterg      :    102.60s CPU    110.66s WALL (     468 calls)

     Called by *egterg:
     cdiaghg      :      2.14s CPU      2.28s WALL (    2479 calls)
     h_psi        :     83.18s CPU     89.69s WALL (    2497 calls)
     s_psi        :      3.99s CPU      4.31s WALL (    2497 calls)
     g_psi        :      0.45s CPU      0.47s WALL (    2011 calls)

     Called by h_psi:
     h_psi:calbec :      4.87s CPU      5.32s WALL (    2497 calls)
     vloc_psi     :     73.55s CPU     79.30s WALL (    2497 calls)
     add_vuspsi   :      4.34s CPU      4.61s WALL (    2497 calls)

     General routines
     calbec       :      6.45s CPU      7.06s WALL (    3055 calls)
     fft          :      2.02s CPU      2.14s WALL (     374 calls)
     ffts         :      0.20s CPU      0.21s WALL (      53 calls)
     fftw         :     78.56s CPU     84.79s WALL (   65422 calls)
     interpolate  :      0.31s CPU      0.32s WALL (      27 calls)

     Parallel routines

     PWSCF        :   3m 9.09s CPU   3m37.72s WALL


   This run was terminated on:   8: 6:21   6May2024            

=------------------------------------------------------------------------------=
   JOB DONE.
=------------------------------------------------------------------------------=
