
     Program PWSCF v.7.1 starts on  6May2024 at  2:59:52 

     This program is part of the open-source Quantum ESPRESSO suite
     for quantum simulation of materials; please cite
         "P. Giannozzi et al., J. Phys.:Condens. Matter 21 395502 (2009);
         "P. Giannozzi et al., J. Phys.:Condens. Matter 29 465901 (2017);
         "P. Giannozzi et al., J. Chem. Phys. 152 154105 (2020);
          URL http://www.quantum-espresso.org", 
     in publications or presentations arising from this work. More details at
     http://www.quantum-espresso.org/quote

     Parallel version (MPI), running on     2 processors

     MPI processes distributed on     1 nodes
     13798 MiB available memory on the printing compute node when the environment starts

     Waiting for input...
     Reading input from standard input
Warning: card &CELL ignored
Warning: card / ignored

     Current dimensions of program PWSCF are:
     Max number of different atomic species (ntypx) = 10
     Max number of k-points (npk) =  40000
     Max angular momentum in pseudopotentials (lmaxx) =  4
     file Ba.pbe-spn-kjpaw_psl.1.0.0.UPF: wavefunction(s)  5S 6S renormalized
     file Bi.pbe-dn-kjpaw_psl.1.0.0.UPF: wavefunction(s)  6P 5D renormalized
     file O.pbe-n-kjpaw_psl.1.0.0.UPF: wavefunction(s)  2S 2P renormalized
     Message from routine setup:
     using ibrav=0 with symmetry is DISCOURAGED, use correct ibrav instead

     R & G space division:  proc/nbgrp/npool/nimage =       2
     Subspace diagonalization in iterative solution of the eigenvalue problem:
     a serial algorithm will be used


     Parallelization info
     --------------------
     sticks:   dense  smooth     PW     G-vecs:    dense   smooth      PW
     Min        1574     790    218                66908    23628    3536
     Max        1575     791    219                66911    23629    3539
     Sum        3149    1581    437               133819    47257    7075

     Using Slab Decomposition



     bravais-lattice index     =            0
     lattice parameter (alat)  =       8.4282  a.u.
     unit-cell volume          =     598.6889 (a.u.)^3
     number of atoms/cell      =            5
     number of atomic types    =            3
     number of electrons       =        43.00
     number of Kohn-Sham states=           26
     kinetic-energy cutoff     =      70.0000  Ry
     charge density cutoff     =     560.0000  Ry
     scf convergence threshold =      1.0E-07
     mixing beta               =       0.7000
     number of iterations used =            8  plain     mixing
     Exchange-correlation= SLA  PW   PBX  PBC
                           (   1   4   3   4   0   0   0)

     celldm(1)=   8.428179  celldm(2)=   0.000000  celldm(3)=   0.000000
     celldm(4)=   0.000000  celldm(5)=   0.000000  celldm(6)=   0.000000

     crystal axes: (cart. coord. in units of alat)
               a(1) = (   1.000000   0.000000   0.000000 )  
               a(2) = (   0.000000   1.000000   0.000000 )  
               a(3) = (   0.000000   0.000000   1.000000 )  

     reciprocal axes: (cart. coord. in units 2 pi/alat)
               b(1) = (  1.000000  0.000000  0.000000 )  
               b(2) = (  0.000000  1.000000  0.000000 )  
               b(3) = (  0.000000  0.000000  1.000000 )  


     PseudoPot. # 1 for Ba read from file:
     /home/bond/Software/qe-7.1/pseudo/Ba.pbe-spn-kjpaw_psl.1.0.0.UPF
     MD5 check sum: 7cfe25f1fe7574a4710541d5a11d6531
     Pseudo is Projector augmented-wave + core cor, Zval = 10.0
     Generated using &quot;atomic&quot; code by A. Dal Corso  v.6.2.2
     Shape of augmentation charge: PSQ
     Using radial grid of 1251 points,  7 beta functions with: 
                l(1) =   0
                l(2) =   0
                l(3) =   0
                l(4) =   1
                l(5) =   1
                l(6) =   2
                l(7) =   2
     Q(r) pseudized with 0 coefficients 


     PseudoPot. # 2 for Bi read from file:
     /home/bond/Software/qe-7.1/pseudo/Bi.pbe-dn-kjpaw_psl.1.0.0.UPF
     MD5 check sum: 266ded784ae3bc462508ed03f0f37963
     Pseudo is Projector augmented-wave + core cor, Zval = 15.0
     Generated using &quot;atomic&quot; code by A. Dal Corso  v.6.2.2
     Shape of augmentation charge: PSQ
     Using radial grid of 1283 points,  6 beta functions with: 
                l(1) =   0
                l(2) =   0
                l(3) =   1
                l(4) =   1
                l(5) =   2
                l(6) =   2
     Q(r) pseudized with 0 coefficients 


     PseudoPot. # 3 for O  read from file:
     /home/bond/Software/qe-7.1/pseudo/O.pbe-n-kjpaw_psl.1.0.0.UPF
     MD5 check sum: e99d9cef9b487d1ca56f5b95ecd0fd7a
     Pseudo is Projector augmented-wave + core cor, Zval =  6.0
     Generated using &quot;atomic&quot; code by A. Dal Corso  v.6.3
     Shape of augmentation charge: PSQ
     Using radial grid of 1095 points,  4 beta functions with: 
                l(1) =   0
                l(2) =   0
                l(3) =   1
                l(4) =   1
     Q(r) pseudized with 0 coefficients 


     atomic species   valence    mass     pseudopotential
        Ba            10.00   137.32700     Ba( 1.00)
        Bi            15.00   208.98040     Bi( 1.00)
        O              6.00    15.99900     O ( 1.00)

     48 Sym. Ops., with inversion, found



   Cartesian axes

     site n.     atom                  positions (alat units)
         1           Ba  tau(   1) = (   0.5000000   0.5000000   0.5000000  )
         2           Bi  tau(   2) = (   0.0000000   0.0000000   0.0000000  )
         3           O   tau(   3) = (   0.0000000   0.0000000   0.5000000  )
         4           O   tau(   4) = (   0.5000000   0.0000000   0.0000000  )
         5           O   tau(   5) = (   0.0000000   0.5000000   0.0000000  )

     number of k points=    10  Methfessel-Paxton smearing, width (Ry)=  0.0200
                       cart. coord. in units 2pi/alat
        k(    1) = (   0.0000000   0.0000000   0.0000000), wk =   0.0160000
        k(    2) = (   0.0000000   0.0000000   0.2000000), wk =   0.0960000
        k(    3) = (   0.0000000   0.0000000   0.4000000), wk =   0.0960000
        k(    4) = (   0.0000000   0.2000000   0.2000000), wk =   0.1920000
        k(    5) = (   0.0000000   0.2000000   0.4000000), wk =   0.3840000
        k(    6) = (   0.0000000   0.4000000   0.4000000), wk =   0.1920000
        k(    7) = (   0.2000000   0.2000000   0.2000000), wk =   0.1280000
        k(    8) = (   0.2000000   0.2000000   0.4000000), wk =   0.3840000
        k(    9) = (   0.2000000   0.4000000   0.4000000), wk =   0.3840000
        k(   10) = (   0.4000000   0.4000000   0.4000000), wk =   0.1280000

     Dense  grid:   133819 G-vectors     FFT dimensions: (  64,  64,  64)

     Smooth grid:    47257 G-vectors     FFT dimensions: (  45,  45,  45)

     Estimated max dynamical RAM per process >     288.45 MB

     Estimated total dynamical RAM >     576.89 MB

     Initial potential from superposition of free atoms

     starting charge      42.9822, renormalised to      43.0000
     Starting wfcs are   26 randomized atomic wfcs
     Checking if some PAW data can be deallocated... 

     total cpu time spent up to now is        5.2 secs

     Self-consistent Calculation

     iteration #  1     ecut=    70.00 Ry     beta= 0.70
     Davidson diagonalization with overlap
     ethr =  1.00E-02,  avg # of iterations =  2.0

     total cpu time spent up to now is        9.9 secs

     total energy              =   -1466.64124419 Ry
     estimated scf accuracy    <       1.76814059 Ry

     iteration #  2     ecut=    70.00 Ry     beta= 0.70
     Davidson diagonalization with overlap
     ethr =  4.11E-03,  avg # of iterations =  6.6

     total cpu time spent up to now is       16.2 secs

     total energy              =   -1467.08237387 Ry
     estimated scf accuracy    <       4.14209254 Ry

     iteration #  3     ecut=    70.00 Ry     beta= 0.70
     Davidson diagonalization with overlap
     ethr =  4.11E-03,  avg # of iterations =  2.8

     total cpu time spent up to now is       21.1 secs

     total energy              =   -1467.43813536 Ry
     estimated scf accuracy    <       0.37485223 Ry

     iteration #  4     ecut=    70.00 Ry     beta= 0.70
     Davidson diagonalization with overlap
     ethr =  8.72E-04,  avg # of iterations =  5.4

     total cpu time spent up to now is       27.4 secs

     total energy              =   -1467.77391202 Ry
     estimated scf accuracy    <       0.14147177 Ry

     iteration #  5     ecut=    70.00 Ry     beta= 0.70
     Davidson diagonalization with overlap
     ethr =  3.29E-04,  avg # of iterations =  4.3

     total cpu time spent up to now is       32.3 secs

     total energy              =   -1467.75128627 Ry
     estimated scf accuracy    <       0.07117067 Ry

     iteration #  6     ecut=    70.00 Ry     beta= 0.70
     Davidson diagonalization with overlap
     c_bands:  1 eigenvalues not converged
     ethr =  1.66E-04,  avg # of iterations =  6.1

     total cpu time spent up to now is       37.7 secs

     total energy              =   -1467.76070706 Ry
     estimated scf accuracy    <       0.00405960 Ry

     iteration #  7     ecut=    70.00 Ry     beta= 0.70
     Davidson diagonalization with overlap
     c_bands:  2 eigenvalues not converged
     c_bands:  1 eigenvalues not converged
     c_bands:  1 eigenvalues not converged
     c_bands:  1 eigenvalues not converged
     ethr =  9.44E-06,  avg # of iterations = 13.8

     total cpu time spent up to now is       45.2 secs

     total energy              =   -1467.76633896 Ry
     estimated scf accuracy    <       0.00221244 Ry

     iteration #  8     ecut=    70.00 Ry     beta= 0.70
     Davidson diagonalization with overlap
     ethr =  5.15E-06,  avg # of iterations =  3.8

     total cpu time spent up to now is       49.9 secs

     total energy              =   -1467.76551228 Ry
     estimated scf accuracy    <       0.00224460 Ry

     iteration #  9     ecut=    70.00 Ry     beta= 0.70
     Davidson diagonalization with overlap
     c_bands:  1 eigenvalues not converged
     ethr =  5.15E-06,  avg # of iterations =  3.8

     total cpu time spent up to now is       54.7 secs

     total energy              =   -1467.76552562 Ry
     estimated scf accuracy    <       0.00035620 Ry

     iteration # 10     ecut=    70.00 Ry     beta= 0.70
     Davidson diagonalization with overlap
     ethr =  8.28E-07,  avg # of iterations =  6.3

     total cpu time spent up to now is       60.6 secs

     total energy              =   -1467.76576751 Ry
     estimated scf accuracy    <       0.00014147 Ry

     iteration # 11     ecut=    70.00 Ry     beta= 0.70
     Davidson diagonalization with overlap
     ethr =  3.29E-07,  avg # of iterations =  1.8

     total cpu time spent up to now is       65.1 secs

     total energy              =   -1467.76576682 Ry
     estimated scf accuracy    <       0.00002790 Ry

     iteration # 12     ecut=    70.00 Ry     beta= 0.70
     Davidson diagonalization with overlap
     ethr =  6.49E-08,  avg # of iterations =  5.4

     total cpu time spent up to now is       70.9 secs

     total energy              =   -1467.76577972 Ry
     estimated scf accuracy    <       0.00000165 Ry

     iteration # 13     ecut=    70.00 Ry     beta= 0.70
     Davidson diagonalization with overlap
     ethr =  3.84E-09,  avg # of iterations =  4.9

     total cpu time spent up to now is       77.1 secs

     End of self-consistent calculation

          k = 0.0000 0.0000 0.0000 (  5887 PWs)   bands (ev):

   -17.6473 -13.4630 -13.4630 -13.1237 -13.1237 -13.1237  -9.0213  -6.8123
    -6.8123  -2.7498  -2.7498  -2.7498   2.7722   3.8611   3.8611   3.8611
     7.4302   7.4302   7.4302   7.6329   7.6329   7.6329  12.7161  12.7162
    13.6549  14.6032

          k = 0.0000 0.0000 0.2000 (  5927 PWs)   bands (ev):

   -17.6400 -13.4628 -13.4137 -13.1263 -13.1263 -13.1236  -8.9259  -7.1019
    -6.8085  -2.7264  -2.7264  -2.7127   1.6056   3.8709   3.8709   5.4150
     7.2488   7.3476   7.3476   7.5571   7.5571   7.7436  13.1579  13.1703
    14.3112  14.9030

          k = 0.0000 0.0000 0.4000 (  5910 PWs)   bands (ev):

   -17.6282 -13.4624 -13.3317 -13.1304 -13.1304 -13.1234  -8.6513  -7.6839
    -6.8023  -2.6879  -2.6879  -2.6679   0.8351   3.8808   3.8808   6.1688
     6.9913   7.2719   7.2719   7.4001   7.4001   9.0083  13.7671  13.9022
    14.8633  15.3259

          k = 0.0000 0.2000 0.2000 (  5918 PWs)   bands (ev):

   -17.6333 -13.4385 -13.3871 -13.1286 -13.1262 -13.1261  -8.8283  -7.2077
    -6.9625  -2.7529  -2.7062  -2.6776   0.7860   3.9091   4.7816   5.6733
     6.9598   7.2557   7.4382   7.4635   7.7353   7.8978  13.4430  13.6639
    14.5402  14.9829

          k = 0.0000 0.2000 0.4000 (  5906 PWs)   bands (ev):

   -17.6223 -13.4301 -13.3108 -13.1323 -13.1303 -13.1259  -8.5446  -7.7035
    -7.0128  -2.7377  -2.6911  -2.6730   0.0775   3.9685   5.1249   6.1139
     6.8495   7.1637   7.2738   7.3714   7.7084   9.2402  13.9850  14.2444
    14.9398  15.1322

          k = 0.0000 0.4000 0.4000 (  5936 PWs)   bands (ev):

   -17.6129 -13.4000 -13.2523 -13.1353 -13.1300 -13.1299  -8.2321  -7.7897
    -7.4507  -2.7839  -2.7586  -2.6488  -0.6413   4.1224   5.9660   6.6069
     6.9005   7.0028   7.0563   7.4298   8.0353  10.1964  14.1035  14.2128
    14.6791  14.7569

          k = 0.2000 0.2000 0.2000 (  5899 PWs)   bands (ev):

   -17.6270 -13.3868 -13.3868 -13.1287 -13.1287 -13.1282  -8.7324  -7.1966
    -7.1966  -2.7597  -2.7597  -2.6409   0.0864   4.8151   4.8151   5.8080
     6.9554   6.9554   7.6704   7.6704   7.6747   8.0381  13.7770  13.7771
    14.5244  14.9914

          k = 0.2000 0.2000 0.4000 (  5935 PWs)   bands (ev):

   -17.6167 -13.3864 -13.3007 -13.1330 -13.1319 -13.1285  -8.4506  -7.7079
    -7.1784  -2.7713  -2.7656  -2.6717  -0.5997   4.8662   5.4465   6.1494
     6.7555   6.9826   7.5282   7.5488   7.7773   9.4035  13.7826  14.2158
    14.7559  14.8532

          k = 0.2000 0.4000 0.4000 (  5910 PWs)   bands (ev):

   -17.6075 -13.3447 -13.2521 -13.1361 -13.1327 -13.1325  -8.1736  -7.7708
    -7.5290  -2.8297  -2.8206  -2.7257  -1.3188   5.2468   6.1719   6.6234
     6.7253   6.9578   7.5200   7.6624   8.0509  10.2902  13.3824  13.4763
    14.0477  15.0333

          k = 0.4000 0.4000 0.4000 (  5926 PWs)   bands (ev):

   -17.5988 -13.2520 -13.2520 -13.1373 -13.1373 -13.1366  -8.0030  -7.7397
    -7.7397  -2.9040  -2.9040  -2.8582  -2.1037   6.4955   6.6665   6.6665
     6.9246   6.9246   7.9914   7.9914   8.1045  10.8413  12.4996  12.4996
    13.0639  15.9412

     the Fermi energy is     9.3636 ev

!    total energy              =   -1467.76578061 Ry
     total all-electron energy =    -59784.857563 Ry
     estimated scf accuracy    <       0.00000009 Ry
     smearing contrib. (-TS)   =      -0.00141437 Ry
     internal energy E=F+TS    =   -1467.76436625 Ry

     The total energy is F=E-TS. E is the sum of the following terms:
     one-electron contribution =     -86.31812543 Ry
     hartree contribution      =      74.34669577 Ry
     xc contribution           =     -75.21902641 Ry
     ewald contribution        =    -220.26899916 Ry
     one-center paw contrib.   =   -1160.30491101 Ry

     convergence has been achieved in  13 iterations

     Forces acting on atoms (cartesian axes, Ry/au):

     atom    1 type  1   force =     0.00000000    0.00000000    0.00000000
     atom    2 type  2   force =     0.00000000    0.00000000    0.00000000
     atom    3 type  3   force =     0.00000000    0.00000000    0.00000000
     atom    4 type  3   force =     0.00000000    0.00000000    0.00000000
     atom    5 type  3   force =     0.00000000    0.00000000    0.00000000

     Total force =     0.000000     Total SCF correction =     0.000000


     Computing stress (Cartesian axis) and pressure

          total   stress  (Ry/bohr**3)                   (kbar)     P=      -23.93
  -0.00016270   0.00000000   0.00000000          -23.93        0.00        0.00
   0.00000000  -0.00016270   0.00000000            0.00      -23.93        0.00
   0.00000000   0.00000000  -0.00016270            0.00        0.00      -23.93


     init_run     :      3.81s CPU      4.14s WALL (       1 calls)
     electrons    :     66.69s CPU     71.97s WALL (       1 calls)
     forces       :      1.34s CPU      1.49s WALL (       1 calls)
     stress       :      7.95s CPU      8.54s WALL (       1 calls)

     Called by init_run:
     wfcinit      :      0.93s CPU      0.97s WALL (       1 calls)
     potinit      :      0.84s CPU      0.88s WALL (       1 calls)
     hinit0       :      1.37s CPU      1.45s WALL (       1 calls)

     Called by electrons:
     c_bands      :     37.43s CPU     37.92s WALL (      13 calls)
     sum_band     :     13.47s CPU     15.83s WALL (      13 calls)
     v_of_rho     :      1.61s CPU      1.66s WALL (      14 calls)
     newd         :      7.44s CPU      9.93s WALL (      14 calls)
     PAW_pot      :      7.51s CPU      7.56s WALL (      14 calls)
     mix_rho      :      0.24s CPU      0.24s WALL (      13 calls)

     Called by c_bands:
     init_us_2    :      0.75s CPU      0.76s WALL (     290 calls)
     init_us_2:cp :      0.75s CPU      0.76s WALL (     290 calls)
     cegterg      :     35.75s CPU     36.20s WALL (     130 calls)

     Called by *egterg:
     cdiaghg      :      1.00s CPU      1.01s WALL (     800 calls)
     h_psi        :     28.38s CPU     28.74s WALL (     810 calls)
     s_psi        :      1.29s CPU      1.31s WALL (     810 calls)
     g_psi        :      0.16s CPU      0.16s WALL (     670 calls)

     Called by h_psi:
     h_psi:calbec :      1.57s CPU      1.59s WALL (     810 calls)
     vloc_psi     :     25.24s CPU     25.55s WALL (     810 calls)
     add_vuspsi   :      1.44s CPU      1.45s WALL (     810 calls)

     General routines
     calbec       :      2.24s CPU      2.28s WALL (     990 calls)
     fft          :      1.26s CPU      1.30s WALL (     205 calls)
     ffts         :      0.15s CPU      0.15s WALL (      27 calls)
     fftw         :     26.79s CPU     27.15s WALL (   22898 calls)
     interpolate  :      0.20s CPU      0.20s WALL (      14 calls)

     Parallel routines

     PWSCF        :   1m20.73s CPU   1m27.20s WALL


   This run was terminated on:   3: 1:19   6May2024            

=------------------------------------------------------------------------------=
   JOB DONE.
=------------------------------------------------------------------------------=
