
     Program PWSCF v.7.1 starts on  5May2024 at  2:17: 9 

     This program is part of the open-source Quantum ESPRESSO suite
     for quantum simulation of materials; please cite
         "P. Giannozzi et al., J. Phys.:Condens. Matter 21 395502 (2009);
         "P. Giannozzi et al., J. Phys.:Condens. Matter 29 465901 (2017);
         "P. Giannozzi et al., J. Chem. Phys. 152 154105 (2020);
          URL http://www.quantum-espresso.org", 
     in publications or presentations arising from this work. More details at
     http://www.quantum-espresso.org/quote

     Parallel version (MPI), running on     2 processors

     MPI processes distributed on     1 nodes
     14364 MiB available memory on the printing compute node when the environment starts

     Waiting for input...
     Reading input from standard input
Warning: card &CELL ignored
Warning: card / ignored

     Current dimensions of program PWSCF are:
     Max number of different atomic species (ntypx) = 10
     Max number of k-points (npk) =  40000
     Max angular momentum in pseudopotentials (lmaxx) =  4
     file Cl.pbe-n-kjpaw_psl.1.0.0.UPF: wavefunction(s)  3S 3P renormalized
     file Cs.pbe-spn-kjpaw_psl.1.0.0.UPF: wavefunction(s)  5S 6S renormalized
     file Ge.pbe-dn-kjpaw_psl.0.2.2.UPF: wavefunction(s)  4P 3D renormalized
     Found identity + ( -0.3333  0.3333  0.3333) symmetry
     This is a supercell, fractional translations are disabled
     Message from routine setup:
     using ibrav=0 with symmetry is DISCOURAGED, use correct ibrav instead

     R & G space division:  proc/nbgrp/npool/nimage =       2
     Subspace diagonalization in iterative solution of the eigenvalue problem:
     a serial algorithm will be used


     Parallelization info
     --------------------
     sticks:   dense  smooth     PW     G-vecs:    dense   smooth      PW
     Min        3639    1452    402               311472    78740   11384
     Max        3640    1453    403               311475    78745   11387
     Sum        7279    2905    805               622947   157485   22771

     Using Slab Decomposition



     bravais-lattice index     =            0
     lattice parameter (alat)  =      14.5389  a.u.
     unit-cell volume          =    3298.4201 (a.u.)^3
     number of atoms/cell      =           15
     number of atomic types    =            3
     number of electrons       =       132.00
     number of Kohn-Sham states=           66
     kinetic-energy cutoff     =      50.0000  Ry
     charge density cutoff     =     500.0000  Ry
     scf convergence threshold =      1.0E-07
     mixing beta               =       0.7000
     number of iterations used =            8  plain     mixing
     Exchange-correlation= SLA  PW   PBX  PBC
                           (   1   4   3   4   0   0   0)

     celldm(1)=  14.538854  celldm(2)=   0.000000  celldm(3)=   0.000000
     celldm(4)=   0.000000  celldm(5)=   0.000000  celldm(6)=   0.000000

     crystal axes: (cart. coord. in units of alat)
               a(1) = (   1.000000   0.000000   0.000000 )  
               a(2) = (  -0.500000   0.866025   0.000000 )  
               a(3) = (   0.000000   0.000000   1.239324 )  

     reciprocal axes: (cart. coord. in units 2 pi/alat)
               b(1) = (  1.000000  0.577350 -0.000000 )  
               b(2) = (  0.000000  1.154701  0.000000 )  
               b(3) = (  0.000000 -0.000000  0.806892 )  


     PseudoPot. # 1 for Cl read from file:
     /home/bond/Software/qe-7.1/pseudo/Cl.pbe-n-kjpaw_psl.1.0.0.UPF
     MD5 check sum: 530da96d25dcb7781b0586ca00827062
     Pseudo is Projector augmented-wave + core cor, Zval =  7.0
     Generated using &quot;atomic&quot; code by A. Dal Corso  v.6.3
     Shape of augmentation charge: PSQ
     Using radial grid of 1157 points,  6 beta functions with: 
                l(1) =   0
                l(2) =   0
                l(3) =   1
                l(4) =   1
                l(5) =   2
                l(6) =   2
     Q(r) pseudized with 0 coefficients 


     PseudoPot. # 2 for Cs read from file:
     /home/bond/Software/qe-7.1/pseudo/Cs.pbe-spn-kjpaw_psl.1.0.0.UPF
     MD5 check sum: b82c75cc2e1f4ff73b6412cffeb9c584
     Pseudo is Projector augmented-wave + core cor, Zval =  9.0
     Generated using &quot;atomic&quot; code by A. Dal Corso  v.6.4.1
     Shape of augmentation charge: PSQ
     Using radial grid of 1251 points,  9 beta functions with: 
                l(1) =   0
                l(2) =   0
                l(3) =   0
                l(4) =   1
                l(5) =   1
                l(6) =   2
                l(7) =   2
                l(8) =   3
                l(9) =   3
     Q(r) pseudized with 0 coefficients 


     PseudoPot. # 3 for Ge read from file:
     /home/bond/Software/qe-7.1/pseudo/Ge.pbe-dn-kjpaw_psl.0.2.2.UPF
     MD5 check sum: acf6dd3aa1b4e03129ff8bf786ac0282
     Pseudo is Projector augmented-wave + core cor, Zval = 14.0
     Generated using "atomic" code by A. Dal Corso  v.5.0.2 svn rev. 9415
     Shape of augmentation charge: PSQ
     Using radial grid of 1207 points,  6 beta functions with: 
                l(1) =   0
                l(2) =   0
                l(3) =   1
                l(4) =   1
                l(5) =   2
                l(6) =   2
     Q(r) pseudized with 0 coefficients 


     atomic species   valence    mass     pseudopotential
        Cl             7.00    35.45000     Cl( 1.00)
        Cs             9.00   132.90545     Cs( 1.00)
        Ge            14.00    72.63000     Ge( 1.00)

      6 Sym. Ops. (no inversion) found



   Cartesian axes

     site n.     atom                  positions (alat units)
         1           Cs  tau(   1) = (   0.0000000   0.0000000   1.2373405  )
         2           Cs  tau(   2) = (   0.4999994   0.2886752   0.4111245  )
         3           Cs  tau(   3) = (   0.0000000   0.5773504   0.8242325  )
         4           Ge  tau(   4) = (   0.0000000   0.0000000   0.6389091  )
         5           Ge  tau(   5) = (   0.4999994   0.2886752   1.0520171  )
         6           Ge  tau(   6) = (   0.0000000   0.5773504   0.2258011  )
         7           Cl  tau(   7) = (   0.0000000   0.3164280   0.3891726  )
         8           Cl  tau(   8) = (   0.2259649   0.7078115   0.3891726  )
         9           Cl  tau(   9) = (  -0.2259649   0.7078115   0.3891726  )
        10           Cl  tau(  10) = (   0.5000006   0.6051032   0.8022806  )
        11           Cl  tau(  11) = (   0.2259649   0.1304612   0.8022806  )
        12           Cl  tau(  12) = (   0.7740351   0.1304612   0.8022806  )
        13           Cl  tau(  13) = (   0.4999994   0.0277528   1.2153886  )
        14           Cl  tau(  14) = (   0.7259655   0.4191364   1.2153886  )
        15           Cl  tau(  15) = (   0.2740345   0.4191364   1.2153886  )

     number of k points=    20
                       cart. coord. in units 2pi/alat
        k(    1) = (   0.1250000   0.2165064   0.1008614), wk =   0.1250000
        k(    2) = (   0.1250000   0.2165064   0.3025843), wk =   0.1250000
        k(    3) = (   0.1250000   0.5051815   0.1008614), wk =   0.1250000
        k(    4) = (   0.1250000   0.5051815   0.3025843), wk =   0.1250000
        k(    5) = (   0.1250000  -0.3608439   0.1008614), wk =   0.1250000
        k(    6) = (   0.1250000  -0.3608439   0.3025843), wk =   0.1250000
        k(    7) = (   0.1250000  -0.0721688   0.1008614), wk =   0.0625000
        k(    8) = (   0.1250000  -0.0721688   0.3025843), wk =   0.0625000
        k(    9) = (   0.3750000   0.6495191   0.1008614), wk =   0.1250000
        k(   10) = (   0.3750000   0.6495191   0.3025843), wk =   0.1250000
        k(   11) = (   0.3750000  -0.2165064   0.1008614), wk =   0.0625000
        k(   12) = (   0.3750000  -0.2165064   0.3025843), wk =   0.0625000
        k(   13) = (  -0.1250000  -0.5051815   0.1008614), wk =   0.1250000
        k(   14) = (  -0.1250000  -0.5051815   0.3025843), wk =   0.1250000
        k(   15) = (  -0.1250000   0.3608439   0.1008614), wk =   0.1250000
        k(   16) = (  -0.1250000   0.3608439   0.3025843), wk =   0.1250000
        k(   17) = (  -0.1250000   0.0721688   0.1008614), wk =   0.0625000
        k(   18) = (  -0.1250000   0.0721688   0.3025843), wk =   0.0625000
        k(   19) = (  -0.3750000   0.2165064   0.1008614), wk =   0.0625000
        k(   20) = (  -0.3750000   0.2165064   0.3025843), wk =   0.0625000

     Dense  grid:   622947 G-vectors     FFT dimensions: ( 108, 108, 135)

     Smooth grid:   157485 G-vectors     FFT dimensions: (  72,  72,  81)

     Estimated max dynamical RAM per process >       3.32 GB

     Estimated total dynamical RAM >       6.63 GB

     Check: negative core charge=   -0.000002

     Initial potential from superposition of free atoms

     starting charge     131.8788, renormalised to     132.0000
     Starting wfcs are   78 randomized atomic wfcs
     Checking if some PAW data can be deallocated... 

     total cpu time spent up to now is       51.6 secs

     Self-consistent Calculation

     iteration #  1     ecut=    50.00 Ry     beta= 0.70
     Davidson diagonalization with overlap
     ethr =  1.00E-02,  avg # of iterations =  1.9

     Threshold (ethr) on eigenvalues was too large:
     Diagonalizing with lowered threshold

     Davidson diagonalization with overlap
     ethr =  4.37E-04,  avg # of iterations =  3.8

     negative rho (up, down):  8.247E-03 0.000E+00

     total cpu time spent up to now is      227.5 secs

     total energy              =   -2909.15554836 Ry
     estimated scf accuracy    <       0.51146042 Ry

     iteration #  2     ecut=    50.00 Ry     beta= 0.70
     Davidson diagonalization with overlap
     ethr =  3.87E-04,  avg # of iterations =  4.2

     negative rho (up, down):  9.231E-03 0.000E+00

     total cpu time spent up to now is      344.8 secs

     total energy              =   -2909.35494721 Ry
     estimated scf accuracy    <       0.19859861 Ry

     iteration #  3     ecut=    50.00 Ry     beta= 0.70
     Davidson diagonalization with overlap
     ethr =  1.50E-04,  avg # of iterations =  2.0

     negative rho (up, down):  6.719E-04 0.000E+00

     total cpu time spent up to now is      447.3 secs

     total energy              =   -2909.37197375 Ry
     estimated scf accuracy    <       0.01982319 Ry

     iteration #  4     ecut=    50.00 Ry     beta= 0.70
     Davidson diagonalization with overlap
     ethr =  1.50E-05,  avg # of iterations =  6.0

     total cpu time spent up to now is      596.1 secs

     total energy              =   -2909.38898606 Ry
     estimated scf accuracy    <       0.01071133 Ry

     iteration #  5     ecut=    50.00 Ry     beta= 0.70
     Davidson diagonalization with overlap
     ethr =  8.11E-06,  avg # of iterations =  2.1

     total cpu time spent up to now is      702.1 secs

     total energy              =   -2909.39138319 Ry
     estimated scf accuracy    <       0.00214928 Ry

     iteration #  6     ecut=    50.00 Ry     beta= 0.70
     Davidson diagonalization with overlap
     ethr =  1.63E-06,  avg # of iterations =  9.2

     total cpu time spent up to now is      870.3 secs

     total energy              =   -2909.39189528 Ry
     estimated scf accuracy    <       0.02024877 Ry

     iteration #  7     ecut=    50.00 Ry     beta= 0.70
     Davidson diagonalization with overlap
     ethr =  1.63E-06,  avg # of iterations =  5.0

     total cpu time spent up to now is      985.5 secs

     total energy              =   -2909.38957556 Ry
     estimated scf accuracy    <       0.00634974 Ry

     iteration #  8     ecut=    50.00 Ry     beta= 0.70
     Davidson diagonalization with overlap
     ethr =  1.63E-06,  avg # of iterations =  4.3

     total cpu time spent up to now is     1101.3 secs

     total energy              =   -2909.39082490 Ry
     estimated scf accuracy    <       0.00007120 Ry

     iteration #  9     ecut=    50.00 Ry     beta= 0.70
     Davidson diagonalization with overlap
     ethr =  5.39E-08,  avg # of iterations =  8.8

     total cpu time spent up to now is     1255.6 secs

     total energy              =   -2909.39090794 Ry
     estimated scf accuracy    <       0.00004703 Ry

     iteration # 10     ecut=    50.00 Ry     beta= 0.70
     Davidson diagonalization with overlap
     ethr =  3.56E-08,  avg # of iterations =  2.0

     total cpu time spent up to now is     1347.2 secs

     total energy              =   -2909.39089836 Ry
     estimated scf accuracy    <       0.00001497 Ry

     iteration # 11     ecut=    50.00 Ry     beta= 0.70
     Davidson diagonalization with overlap
     ethr =  1.13E-08,  avg # of iterations =  6.0

     total cpu time spent up to now is     1487.9 secs

     total energy              =   -2909.39090826 Ry
     estimated scf accuracy    <       0.00001488 Ry

     iteration # 12     ecut=    50.00 Ry     beta= 0.70
     Davidson diagonalization with overlap
     ethr =  1.13E-08,  avg # of iterations =  1.9

     total cpu time spent up to now is     1577.1 secs

     total energy              =   -2909.39090658 Ry
     estimated scf accuracy    <       0.00000523 Ry

     iteration # 13     ecut=    50.00 Ry     beta= 0.70
     Davidson diagonalization with overlap
     ethr =  3.96E-09,  avg # of iterations =  5.2

     total cpu time spent up to now is     1691.2 secs

     End of self-consistent calculation

          k = 0.1250 0.2165 0.1009 ( 19696 PWs)   bands (ev):

   -20.8189 -20.8188 -20.8184 -20.8181 -20.8178 -20.8176 -20.7813 -20.7813
   -20.7810 -20.7810 -20.7807 -20.7807 -20.7593 -20.7590 -20.7589 -17.4487
   -17.4440 -17.4426 -11.8167 -11.6522 -11.5890 -11.1873 -11.1707 -11.1402
   -11.1024 -11.0648 -11.0373  -4.7101  -4.4691  -4.3111  -4.2995  -4.2893
    -4.2729  -4.2721  -4.2675  -4.2626  -4.2484  -4.2185  -3.5952  -1.1717
    -1.0681  -0.7415  -0.4259  -0.2758  -0.0708  -0.0241   0.0544   0.1480
     0.4342   0.5068   0.5351   0.6389   0.8347   0.9039   1.0347   1.1295
     1.1851   1.2110   1.2209   1.2701   1.3098   1.3917   1.4710   1.6092
     2.5768   3.0591

          k = 0.1250 0.2165 0.3026 ( 19714 PWs)   bands (ev):

   -20.8189 -20.8187 -20.8184 -20.8181 -20.8178 -20.8176 -20.7813 -20.7813
   -20.7810 -20.7810 -20.7808 -20.7807 -20.7593 -20.7590 -20.7589 -17.4476
   -17.4459 -17.4419 -11.7835 -11.7239 -11.5531 -11.1876 -11.1675 -11.1380
   -11.0981 -11.0658 -11.0420  -4.8482  -4.3273  -4.3252  -4.3041  -4.2872
    -4.2708  -4.2698  -4.2560  -4.2453  -4.2443  -4.0658  -3.7834  -1.1477
    -1.0064  -0.8942  -0.5995  -0.2003   0.0306   0.0396   0.0519   0.2255
     0.4012   0.4709   0.6193   0.7490   0.7580   0.8567   1.0794   1.1255
     1.1427   1.1680   1.2319   1.2983   1.3492   1.3959   1.4971   1.7209
     2.0700   3.3456

          k = 0.1250 0.5052 0.1009 ( 19690 PWs)   bands (ev):

   -20.8187 -20.8186 -20.8184 -20.8183 -20.8179 -20.8175 -20.7813 -20.7813
   -20.7811 -20.7810 -20.7808 -20.7806 -20.7593 -20.7590 -20.7589 -17.4460
   -17.4452 -17.4435 -11.7285 -11.6962 -11.6167 -11.1923 -11.1692 -11.1215
   -11.1210 -11.0778 -11.0659  -4.4985  -4.3006  -4.2886  -4.2808  -4.2663
    -4.2640  -4.2613  -4.2347  -4.2338  -4.2240  -4.1364  -4.0705  -0.9971
    -0.9680  -0.9265  -0.7046  -0.6075  -0.0927   0.1559   0.2273   0.3250
     0.4979   0.5349   0.5601   0.6520   0.7393   0.7718   0.9621   0.9973
     1.0591   1.1092   1.1509   1.2071   1.2488   1.2659   1.4736   2.0543
     2.3516   2.9451

          k = 0.1250 0.5052 0.3026 ( 19675 PWs)   bands (ev):

   -20.8189 -20.8186 -20.8183 -20.8181 -20.8179 -20.8176 -20.7813 -20.7812
   -20.7810 -20.7809 -20.7808 -20.7807 -20.7593 -20.7590 -20.7589 -17.4458
   -17.4453 -17.4435 -11.7175 -11.7020 -11.6247 -11.1815 -11.1751 -11.1403
   -11.1203 -11.0862 -11.0408  -4.5120  -4.2924  -4.2856  -4.2805  -4.2697
    -4.2667  -4.2566  -4.2473  -4.2358  -4.2350  -4.1645  -4.0070  -1.1143
    -0.9314  -0.7940  -0.7827  -0.5416  -0.1286   0.1417   0.1954   0.2086
     0.4601   0.5461   0.6181   0.6244   0.7223   0.8748   1.0044   1.0181
     1.0984   1.1126   1.1757   1.2033   1.2200   1.2944   1.4288   2.2151
     2.2786   2.8054

          k = 0.1250-0.3608 0.1009 ( 19694 PWs)   bands (ev):

   -20.8189 -20.8186 -20.8184 -20.8182 -20.8177 -20.8176 -20.7813 -20.7813
   -20.7811 -20.7810 -20.7807 -20.7807 -20.7593 -20.7590 -20.7589 -17.4476
   -17.4440 -17.4434 -11.7822 -11.6445 -11.6221 -11.1824 -11.1793 -11.1215
   -11.1029 -11.1009 -11.0415  -4.5662  -4.4367  -4.2959  -4.2847  -4.2798
    -4.2714  -4.2525  -4.2512  -4.2412  -4.2406  -4.2224  -3.7782  -1.1457
    -0.9558  -0.9370  -0.6082  -0.2516  -0.1736   0.0632   0.1818   0.2313
     0.4520   0.5272   0.5752   0.6822   0.7137   0.8915   0.9514   1.0780
     1.1302   1.1342   1.1580   1.1881   1.2652   1.4119   1.4253   1.7883
     2.7091   2.7872

          k = 0.1250-0.3608 0.3026 ( 19691 PWs)   bands (ev):

   -20.8189 -20.8187 -20.8182 -20.8180 -20.8179 -20.8177 -20.7813 -20.7813
   -20.7810 -20.7809 -20.7808 -20.7808 -20.7593 -20.7590 -20.7589 -17.4469
   -17.4453 -17.4427 -11.7587 -11.7000 -11.5937 -11.1761 -11.1563 -11.1475
   -11.1336 -11.0744 -11.0361  -4.6851  -4.3107  -4.3066  -4.2969  -4.2730
    -4.2685  -4.2651  -4.2481  -4.2400  -4.2309  -4.1275  -3.8638  -1.1478
    -1.0782  -0.9015  -0.4415  -0.4251  -0.1316   0.0781   0.1638   0.2807
     0.3708   0.5213   0.5998   0.6979   0.7665   0.8841   1.0228   1.0304
     1.1211   1.1212   1.1757   1.2345   1.3392   1.3394   1.4332   1.9265
     2.2834   2.9622

          k = 0.1250-0.0722 0.1009 ( 19708 PWs)   bands (ev):

   -20.8189 -20.8189 -20.8182 -20.8180 -20.8178 -20.8176 -20.7813 -20.7813
   -20.7810 -20.7810 -20.7807 -20.7807 -20.7593 -20.7590 -20.7589 -17.4493
   -17.4440 -17.4423 -11.8357 -11.6536 -11.5766 -11.1822 -11.1573 -11.1528
   -11.1111 -11.0421 -11.0370  -4.7818  -4.5036  -4.3207  -4.3142  -4.2918
    -4.2900  -4.2824  -4.2721  -4.2692  -4.2574  -4.2174  -3.4759  -1.1888
    -1.1251  -0.5570  -0.3477  -0.2743  -0.1815   0.0239   0.0383   0.0756
     0.4295   0.4974   0.5043   0.5928   0.8992   0.9149   1.1274   1.1281
     1.2281   1.2744   1.2765   1.3471   1.3551   1.3740   1.4861   1.5075
     2.4944   3.1373

          k = 0.1250-0.0722 0.3026 ( 19729 PWs)   bands (ev):

   -20.8189 -20.8187 -20.8185 -20.8182 -20.8177 -20.8176 -20.7813 -20.7813
   -20.7811 -20.7810 -20.7808 -20.7807 -20.7593 -20.7590 -20.7589 -17.4481
   -17.4461 -17.4414 -11.7992 -11.7345 -11.5329 -11.1912 -11.1780 -11.1198
   -11.0735 -11.0708 -11.0477  -4.9335  -4.3374  -4.3360  -4.3267  -4.2861
    -4.2729  -4.2701  -4.2614  -4.2593  -4.2505  -4.0529  -3.7214  -1.1239
    -0.9219  -0.8813  -0.6900  -0.0673  -0.0495   0.0105   0.1259   0.1688
     0.4114   0.4594   0.6368   0.7228   0.7818   0.8478   1.1479   1.1616
     1.2091   1.2271   1.2529   1.2687   1.4239   1.4387   1.5259   1.5986
     1.9375   3.5804

          k = 0.3750 0.6495 0.1009 ( 19692 PWs)   bands (ev):

   -20.8187 -20.8186 -20.8185 -20.8180 -20.8179 -20.8177 -20.7813 -20.7813
   -20.7811 -20.7809 -20.7808 -20.7807 -20.7593 -20.7590 -20.7589 -17.4453
   -17.4450 -17.4443 -11.6981 -11.6898 -11.6538 -11.1795 -11.1608 -11.1543
   -11.0987 -11.0862 -11.0728  -4.3799  -4.3073  -4.2933  -4.2764  -4.2719
    -4.2618  -4.2357  -4.2344  -4.2313  -4.2185  -4.1790  -4.1322  -1.0776
    -1.0198  -1.0036  -0.5242  -0.4728  -0.2691   0.2172   0.2821   0.3602
     0.4117   0.4785   0.4985   0.7332   0.7510   0.8076   0.9598   0.9825
     1.0016   1.1017   1.1196   1.1578   1.2827   1.3063   1.3882   2.3245
     2.3397   2.6460

          k = 0.3750 0.6495 0.3026 ( 19688 PWs)   bands (ev):

   -20.8188 -20.8186 -20.8185 -20.8179 -20.8179 -20.8177 -20.7813 -20.7812
   -20.7811 -20.7809 -20.7808 -20.7808 -20.7593 -20.7590 -20.7589 -17.4454
   -17.4447 -17.4444 -11.7016 -11.6768 -11.6628 -11.1795 -11.1738 -11.1681
   -11.0884 -11.0850 -11.0573  -4.3572  -4.3246  -4.2768  -4.2744  -4.2742
    -4.2569  -4.2566  -4.2519  -4.2360  -4.2148  -4.2051  -4.0996  -1.0686
    -0.9424  -0.9069  -0.6384  -0.4681  -0.3641   0.1917   0.2175   0.2504
     0.4379   0.4571   0.5277   0.7368   0.7383   0.8387   1.0418   1.0595
     1.0708   1.1055   1.1445   1.1953   1.2222   1.2895   1.3341   2.3511
     2.4409   2.5741

          k = 0.3750-0.2165 0.1009 ( 19699 PWs)   bands (ev):

   -20.8187 -20.8186 -20.8185 -20.8183 -20.8179 -20.8175 -20.7813 -20.7813
   -20.7811 -20.7810 -20.7808 -20.7806 -20.7593 -20.7590 -20.7589 -17.4469
   -17.4449 -17.4430 -11.7604 -11.6846 -11.5982 -11.1965 -11.1762 -11.1322
   -11.0928 -11.0721 -11.0694  -4.5793  -4.3311  -4.2978  -4.2778  -4.2744
    -4.2685  -4.2658  -4.2392  -4.2345  -4.2312  -4.1764  -3.9314  -0.9595
    -0.8974  -0.8548  -0.8164  -0.6311  -0.0127   0.1265   0.1869   0.2375
     0.4987   0.5519   0.6007   0.6983   0.7188   0.7355   0.9427   1.0611
     1.1220   1.1403   1.1816   1.1996   1.2415   1.2759   1.5072   1.8674
     2.4269   3.0967

          k = 0.3750-0.2165 0.3026 ( 19685 PWs)   bands (ev):

   -20.8189 -20.8186 -20.8182 -20.8182 -20.8179 -20.8175 -20.7813 -20.7813
   -20.7810 -20.7810 -20.7808 -20.7807 -20.7593 -20.7590 -20.7589 -17.4460
   -17.4460 -17.4429 -11.7291 -11.7223 -11.5962 -11.1842 -11.1716 -11.1410
   -11.1151 -11.0833 -11.0387  -4.6362  -4.3057  -4.2977  -4.2781  -4.2693
    -4.2680  -4.2536  -4.2473  -4.2385  -4.2369  -4.0707  -3.9947  -1.0668
    -1.0133  -0.8508  -0.6212  -0.6088   0.0240   0.0976   0.1580   0.1708
     0.4730   0.5424   0.6401   0.6582   0.7172   0.8589   0.9679   1.0403
     1.1239   1.1715   1.1761   1.2005   1.2565   1.3043   1.4761   2.0263
     2.2312   3.0070

          k =-0.1250-0.5052 0.1009 ( 19690 PWs)   bands (ev):

   -20.8188 -20.8186 -20.8184 -20.8182 -20.8179 -20.8175 -20.7813 -20.7813
   -20.7811 -20.7810 -20.7808 -20.7807 -20.7593 -20.7590 -20.7589 -17.4463
   -17.4446 -17.4438 -11.7388 -11.6723 -11.6318 -11.1896 -11.1549 -11.1395
   -11.1107 -11.1002 -11.0514  -4.4394  -4.3732  -4.2834  -4.2818  -4.2729
    -4.2586  -4.2506  -4.2443  -4.2364  -4.2196  -4.2178  -3.9748  -1.0898
    -1.0121  -0.7972  -0.7955  -0.4728  -0.1186   0.1055   0.2815   0.3235
     0.4625   0.5303   0.6074   0.6382   0.6932   0.8308   0.9487   1.0285
     1.0463   1.0726   1.1420   1.2042   1.2303   1.3299   1.4546   2.0537
     2.4096   2.8408

          k =-0.1250-0.5052 0.3026 ( 19675 PWs)   bands (ev):

   -20.8189 -20.8186 -20.8182 -20.8180 -20.8179 -20.8177 -20.7813 -20.7812
   -20.7810 -20.7809 -20.7808 -20.7807 -20.7593 -20.7590 -20.7589 -17.4463
   -17.4445 -17.4439 -11.7335 -11.6653 -11.6469 -11.1713 -11.1634 -11.1598
   -11.1184 -11.0944 -11.0355  -4.4659  -4.3543  -4.2921  -4.2862  -4.2797
    -4.2607  -4.2427  -4.2422  -4.2387  -4.2328  -4.2085  -3.9424  -1.1361
    -0.9996  -0.8749  -0.6869  -0.3302  -0.2734   0.0962   0.2190   0.2583
     0.4279   0.5441   0.6124   0.6429   0.7159   0.8986   1.0060   1.0241
     1.1042   1.1089   1.1352   1.1426   1.2802   1.3572   1.3835   2.1528
     2.5352   2.5648

          k =-0.1250 0.3608 0.1009 ( 19694 PWs)   bands (ev):

   -20.8188 -20.8186 -20.8185 -20.8183 -20.8178 -20.8175 -20.7813 -20.7813
   -20.7811 -20.7810 -20.7807 -20.7807 -20.7593 -20.7590 -20.7589 -17.4475
   -17.4445 -17.4430 -11.7793 -11.6656 -11.6020 -11.1913 -11.1801 -11.1305
   -11.0893 -11.0837 -11.0555  -4.6029  -4.3850  -4.2992  -4.2823  -4.2742
    -4.2741  -4.2604  -4.2474  -4.2418  -4.2359  -4.2100  -3.8175  -1.0985
    -0.9137  -0.8761  -0.7066  -0.4192  -0.0684   0.1328   0.1645   0.1773
     0.4608   0.5250   0.5889   0.6941   0.7117   0.8480   0.9446   1.0863
     1.1525   1.1683   1.1761   1.2082   1.2123   1.3382   1.4785   1.7871
     2.5529   3.0145

          k =-0.1250 0.3608 0.3026 ( 19691 PWs)   bands (ev):

   -20.8189 -20.8188 -20.8183 -20.8181 -20.8179 -20.8176 -20.7813 -20.7813
   -20.7810 -20.7810 -20.7808 -20.7807 -20.7593 -20.7590 -20.7589 -17.4466
   -17.4457 -17.4426 -11.7498 -11.7157 -11.5851 -11.1864 -11.1642 -11.1463
   -11.1192 -11.0584 -11.0515  -4.6972  -4.3104  -4.3060  -4.2804  -4.2734
    -4.2689  -4.2585  -4.2565  -4.2366  -4.2356  -4.0496  -3.9530  -1.1000
    -1.0723  -0.7373  -0.6850  -0.4895  -0.0278   0.1291   0.1411   0.2063
     0.4006   0.5351   0.6145   0.6689   0.8133   0.8220   0.9861   1.0608
     1.1212   1.1635   1.2335   1.2416   1.2571   1.3007   1.4687   1.9320
     2.2282   3.0815

          k =-0.1250 0.0722 0.1009 ( 19708 PWs)   bands (ev):

   -20.8190 -20.8189 -20.8183 -20.8180 -20.8178 -20.8176 -20.7814 -20.7813
   -20.7810 -20.7809 -20.7807 -20.7807 -20.7593 -20.7590 -20.7589 -17.4493
   -17.4439 -17.4423 -11.8360 -11.6513 -11.5792 -11.1817 -11.1546 -11.1507
   -11.1161 -11.0489 -11.0301  -4.7784  -4.5094  -4.3190  -4.3150  -4.2980
    -4.2847  -4.2832  -4.2730  -4.2648  -4.2603  -4.2180  -3.4696  -1.1894
    -1.1407  -0.6108  -0.2589  -0.2087  -0.1759  -0.0899   0.0188   0.1229
     0.4260   0.4976   0.5085   0.5843   0.8951   0.9277   1.1218   1.1435
     1.2110   1.2532   1.2742   1.3544   1.3660   1.4001   1.4680   1.5072
     2.5088   3.1027

          k =-0.1250 0.0722 0.3026 ( 19729 PWs)   bands (ev):

   -20.8189 -20.8187 -20.8185 -20.8182 -20.8177 -20.8176 -20.7813 -20.7813
   -20.7810 -20.7810 -20.7808 -20.7807 -20.7593 -20.7590 -20.7589 -17.4481
   -17.4461 -17.4414 -11.8001 -11.7330 -11.5341 -11.1882 -11.1797 -11.1149
   -11.0797 -11.0772 -11.0408  -4.9324  -4.3374  -4.3360  -4.3268  -4.2817
    -4.2808  -4.2705  -4.2622  -4.2561  -4.2504  -4.0614  -3.7095  -1.1047
    -0.9762  -0.9224  -0.6116  -0.0566  -0.0019  -0.0017   0.0467   0.2061
     0.4200   0.4446   0.6338   0.7174   0.7878   0.8543   1.1580   1.1864
     1.1878   1.2087   1.2142   1.3088   1.4260   1.4465   1.5170   1.5977
     1.9402   3.5513

          k =-0.3750 0.2165 0.1009 ( 19699 PWs)   bands (ev):

   -20.8189 -20.8186 -20.8183 -20.8182 -20.8178 -20.8175 -20.7814 -20.7813
   -20.7811 -20.7810 -20.7808 -20.7806 -20.7593 -20.7590 -20.7589 -17.4472
   -17.4439 -17.4437 -11.7682 -11.6482 -11.6300 -11.1867 -11.1649 -11.1186
   -11.1143 -11.1112 -11.0400  -4.4795  -4.4589  -4.2890  -4.2888  -4.2756
    -4.2680  -4.2543  -4.2439  -4.2388  -4.2361  -4.2201  -3.8380  -1.0884
    -0.9837  -0.9772  -0.5541  -0.4895  -0.0281   0.0079   0.2325   0.2777
     0.5020   0.5484   0.5530   0.6643   0.7292   0.8190   0.9577   1.0510
     1.0904   1.1218   1.1299   1.1927   1.2726   1.3592   1.4720   1.8715
     2.5598   2.8402

          k =-0.3750 0.2165 0.3026 ( 19685 PWs)   bands (ev):

   -20.8190 -20.8186 -20.8182 -20.8180 -20.8179 -20.8177 -20.7813 -20.7813
   -20.7810 -20.7809 -20.7808 -20.7807 -20.7593 -20.7590 -20.7589 -17.4468
   -17.4448 -17.4432 -11.7533 -11.6806 -11.6169 -11.1570 -11.1531 -11.1502
   -11.1493 -11.0932 -11.0278  -4.6025  -4.3249  -4.3042  -4.3022  -4.2831
    -4.2586  -4.2523  -4.2438  -4.2390  -4.2301  -4.1860  -3.8530  -1.1490
    -1.0509  -0.9828  -0.4921  -0.2778  -0.2326   0.0497   0.1983   0.2512
     0.4626   0.5024   0.6048   0.7075   0.7165   0.9109   1.0002   1.0023
     1.0974   1.1317   1.1415   1.1796   1.3334   1.3930   1.4029   2.0027
     2.3999   2.7481

     highest occupied level (ev):     3.5804

!    total energy              =   -2909.39090783 Ry
     total all-electron energy =    -67624.283753 Ry
     estimated scf accuracy    <       0.00000009 Ry

     The total energy is the sum of the following terms:
     one-electron contribution =    -648.63905023 Ry
     hartree contribution      =     389.41278064 Ry
     xc contribution           =    -331.48072516 Ry
     ewald contribution        =    -524.65386481 Ry
     one-center paw contrib.   =   -1794.03004828 Ry

     convergence has been achieved in  13 iterations

     Forces acting on atoms (cartesian axes, Ry/au):

     atom    1 type  2   force =     0.00000000    0.00000000    0.00023515
     atom    2 type  2   force =     0.00000000   -0.00000000    0.00022668
     atom    3 type  2   force =     0.00000000    0.00000000    0.00025013
     atom    4 type  3   force =     0.00000000    0.00000000   -0.01417685
     atom    5 type  3   force =     0.00000000    0.00000000   -0.01416951
     atom    6 type  3   force =    -0.00000000   -0.00000000   -0.01408087
     atom    7 type  1   force =     0.00000000   -0.00892847    0.00460901
     atom    8 type  1   force =     0.00773228    0.00446423    0.00460901
     atom    9 type  1   force =    -0.00773228    0.00446423    0.00460901
     atom   10 type  1   force =    -0.00000000   -0.00895885    0.00465529
     atom   11 type  1   force =     0.00775860    0.00447943    0.00465529
     atom   12 type  1   force =    -0.00775860    0.00447943    0.00465529
     atom   13 type  1   force =    -0.00000000   -0.00895904    0.00464080
     atom   14 type  1   force =     0.00775876    0.00447952    0.00464080
     atom   15 type  1   force =    -0.00775876    0.00447952    0.00464080

     Total force =     0.038914     Total SCF correction =     0.000684


     Computing stress (Cartesian axis) and pressure

          total   stress  (Ry/bohr**3)                   (kbar)     P=        9.60
   0.00006878  -0.00000000   0.00000000           10.12       -0.00        0.00
  -0.00000000   0.00006878   0.00000000           -0.00       10.12        0.00
   0.00000000  -0.00000000   0.00005823            0.00       -0.00        8.57


     init_run     :     45.73s CPU     50.28s WALL (       1 calls)
     electrons    :   1518.04s CPU   1639.64s WALL (       1 calls)
     forces       :     27.62s CPU     30.37s WALL (       1 calls)
     stress       :    178.56s CPU    189.41s WALL (       1 calls)

     Called by init_run:
     wfcinit      :     28.36s CPU     30.68s WALL (       1 calls)
     potinit      :      6.39s CPU      6.48s WALL (       1 calls)
     hinit0       :      4.07s CPU      4.18s WALL (       1 calls)

     Called by electrons:
     c_bands      :   1133.28s CPU   1187.32s WALL (      14 calls)
     sum_band     :    245.28s CPU    285.05s WALL (      14 calls)
     v_of_rho     :     10.48s CPU     11.53s WALL (      14 calls)
     newd         :     89.40s CPU    116.54s WALL (      14 calls)
     PAW_pot      :     47.68s CPU     49.14s WALL (      14 calls)
     mix_rho      :      1.53s CPU      1.60s WALL (      14 calls)

     Called by c_bands:
     init_us_2    :     13.07s CPU     13.57s WALL (     620 calls)
     init_us_2:cp :     13.07s CPU     13.57s WALL (     620 calls)
     cegterg      :   1057.87s CPU   1108.99s WALL (     280 calls)

     Called by *egterg:
     cdiaghg      :     13.83s CPU     14.48s WALL (    1508 calls)
     h_psi        :    784.64s CPU    822.45s WALL (    1548 calls)
     s_psi        :    100.23s CPU    104.81s WALL (    1548 calls)
     g_psi        :      2.83s CPU      2.95s WALL (    1248 calls)

     Called by h_psi:
     h_psi:calbec :    102.12s CPU    106.31s WALL (    1548 calls)
     vloc_psi     :    577.24s CPU    604.05s WALL (    1548 calls)
     add_vuspsi   :    102.45s CPU    106.92s WALL (    1548 calls)

     General routines
     calbec       :    145.42s CPU    151.35s WALL (    1928 calls)
     fft          :      7.84s CPU      8.29s WALL (     206 calls)
     ffts         :      0.55s CPU      0.56s WALL (      28 calls)
     fftw         :    580.11s CPU    607.01s WALL (  133484 calls)
     interpolate  :      1.03s CPU      1.05s WALL (      14 calls)

     Parallel routines

     PWSCF        :  29m31.19s CPU  31m51.06s WALL


   This run was terminated on:   2:49: 0   5May2024            

=------------------------------------------------------------------------------=
   JOB DONE.
=------------------------------------------------------------------------------=
