
     Program PWSCF v.7.1 starts on  5May2024 at  1:39:49 

     This program is part of the open-source Quantum ESPRESSO suite
     for quantum simulation of materials; please cite
         "P. Giannozzi et al., J. Phys.:Condens. Matter 21 395502 (2009);
         "P. Giannozzi et al., J. Phys.:Condens. Matter 29 465901 (2017);
         "P. Giannozzi et al., J. Chem. Phys. 152 154105 (2020);
          URL http://www.quantum-espresso.org", 
     in publications or presentations arising from this work. More details at
     http://www.quantum-espresso.org/quote

     Parallel version (MPI), running on     2 processors

     MPI processes distributed on     1 nodes
     2397 MiB available memory on the printing compute node when the environment starts

     Waiting for input...
     Reading input from standard input
Warning: card &CELL ignored
Warning: card / ignored

     Current dimensions of program PWSCF are:
     Max number of different atomic species (ntypx) = 10
     Max number of k-points (npk) =  40000
     Max angular momentum in pseudopotentials (lmaxx) =  4
     file Cl.pbe-n-kjpaw_psl.1.0.0.UPF: wavefunction(s)  3S 3P renormalized
     file Cs.pbe-spn-kjpaw_psl.1.0.0.UPF: wavefunction(s)  5S 6S renormalized
     file Ge.pbe-dn-kjpaw_psl.0.2.2.UPF: wavefunction(s)  4P 3D renormalized
     Found identity + ( -0.3333  0.3333  0.3333) symmetry
     This is a supercell, fractional translations are disabled
     Message from routine setup:
     using ibrav=0 with symmetry is DISCOURAGED, use correct ibrav instead

     R & G space division:  proc/nbgrp/npool/nimage =       2
     Subspace diagonalization in iterative solution of the eigenvalue problem:
     a serial algorithm will be used


     Parallelization info
     --------------------
     sticks:   dense  smooth     PW     G-vecs:    dense   smooth      PW
     Min        3639    1452    402               311472    78740   11384
     Max        3640    1453    403               311475    78745   11387
     Sum        7279    2905    805               622947   157485   22771

     Using Slab Decomposition



     bravais-lattice index     =            0
     lattice parameter (alat)  =      14.5389  a.u.
     unit-cell volume          =    3298.4201 (a.u.)^3
     number of atoms/cell      =           15
     number of atomic types    =            3
     number of electrons       =       132.00
     number of Kohn-Sham states=           66
     kinetic-energy cutoff     =      50.0000  Ry
     charge density cutoff     =     500.0000  Ry
     scf convergence threshold =      1.0E-07
     mixing beta               =       0.7000
     number of iterations used =            8  plain     mixing
     Exchange-correlation= SLA  PW   PBX  PBC
                           (   1   4   3   4   0   0   0)

     celldm(1)=  14.538854  celldm(2)=   0.000000  celldm(3)=   0.000000
     celldm(4)=   0.000000  celldm(5)=   0.000000  celldm(6)=   0.000000

     crystal axes: (cart. coord. in units of alat)
               a(1) = (   1.000000   0.000000   0.000000 )  
               a(2) = (  -0.500000   0.866025   0.000000 )  
               a(3) = (   0.000000   0.000000   1.239324 )  

     reciprocal axes: (cart. coord. in units 2 pi/alat)
               b(1) = (  1.000000  0.577350 -0.000000 )  
               b(2) = (  0.000000  1.154701  0.000000 )  
               b(3) = (  0.000000 -0.000000  0.806892 )  


     PseudoPot. # 1 for Cl read from file:
     /home/bond/Software/qe-7.1/pseudo/Cl.pbe-n-kjpaw_psl.1.0.0.UPF
     MD5 check sum: 530da96d25dcb7781b0586ca00827062
     Pseudo is Projector augmented-wave + core cor, Zval =  7.0
     Generated using &quot;atomic&quot; code by A. Dal Corso  v.6.3
     Shape of augmentation charge: PSQ
     Using radial grid of 1157 points,  6 beta functions with: 
                l(1) =   0
                l(2) =   0
                l(3) =   1
                l(4) =   1
                l(5) =   2
                l(6) =   2
     Q(r) pseudized with 0 coefficients 


     PseudoPot. # 2 for Cs read from file:
     /home/bond/Software/qe-7.1/pseudo/Cs.pbe-spn-kjpaw_psl.1.0.0.UPF
     MD5 check sum: b82c75cc2e1f4ff73b6412cffeb9c584
     Pseudo is Projector augmented-wave + core cor, Zval =  9.0
     Generated using &quot;atomic&quot; code by A. Dal Corso  v.6.4.1
     Shape of augmentation charge: PSQ
     Using radial grid of 1251 points,  9 beta functions with: 
                l(1) =   0
                l(2) =   0
                l(3) =   0
                l(4) =   1
                l(5) =   1
                l(6) =   2
                l(7) =   2
                l(8) =   3
                l(9) =   3
     Q(r) pseudized with 0 coefficients 


     PseudoPot. # 3 for Ge read from file:
     /home/bond/Software/qe-7.1/pseudo/Ge.pbe-dn-kjpaw_psl.0.2.2.UPF
     MD5 check sum: acf6dd3aa1b4e03129ff8bf786ac0282
     Pseudo is Projector augmented-wave + core cor, Zval = 14.0
     Generated using "atomic" code by A. Dal Corso  v.5.0.2 svn rev. 9415
     Shape of augmentation charge: PSQ
     Using radial grid of 1207 points,  6 beta functions with: 
                l(1) =   0
                l(2) =   0
                l(3) =   1
                l(4) =   1
                l(5) =   2
                l(6) =   2
     Q(r) pseudized with 0 coefficients 


     atomic species   valence    mass     pseudopotential
        Cl             7.00    35.45000     Cl( 1.00)
        Cs             9.00   132.90545     Cs( 1.00)
        Ge            14.00    72.63000     Ge( 1.00)

      6 Sym. Ops. (no inversion) found



   Cartesian axes

     site n.     atom                  positions (alat units)
         1           Cs  tau(   1) = (   0.0000000   0.0000000   1.2373405  )
         2           Cs  tau(   2) = (   0.4999994   0.2886752   0.4111245  )
         3           Cs  tau(   3) = (   0.0000000   0.5773504   0.8242325  )
         4           Ge  tau(   4) = (   0.0000000   0.0000000   0.6389091  )
         5           Ge  tau(   5) = (   0.4999994   0.2886752   1.0520171  )
         6           Ge  tau(   6) = (   0.0000000   0.5773504   0.2258011  )
         7           Cl  tau(   7) = (   0.0000000   0.3164280   0.3891726  )
         8           Cl  tau(   8) = (   0.2259649   0.7078115   0.3891726  )
         9           Cl  tau(   9) = (  -0.2259649   0.7078115   0.3891726  )
        10           Cl  tau(  10) = (   0.5000006   0.6051032   0.8022806  )
        11           Cl  tau(  11) = (   0.2259649   0.1304612   0.8022806  )
        12           Cl  tau(  12) = (   0.7740351   0.1304612   0.8022806  )
        13           Cl  tau(  13) = (   0.4999994   0.0277528   1.2153886  )
        14           Cl  tau(  14) = (   0.7259655   0.4191364   1.2153886  )
        15           Cl  tau(  15) = (   0.2740345   0.4191364   1.2153886  )

     number of k points=    20
                       cart. coord. in units 2pi/alat
        k(    1) = (   0.1250000   0.2165064   0.1008614), wk =   0.1250000
        k(    2) = (   0.1250000   0.2165064   0.3025843), wk =   0.1250000
        k(    3) = (   0.1250000   0.5051815   0.1008614), wk =   0.1250000
        k(    4) = (   0.1250000   0.5051815   0.3025843), wk =   0.1250000
        k(    5) = (   0.1250000  -0.3608439   0.1008614), wk =   0.1250000
        k(    6) = (   0.1250000  -0.3608439   0.3025843), wk =   0.1250000
        k(    7) = (   0.1250000  -0.0721688   0.1008614), wk =   0.0625000
        k(    8) = (   0.1250000  -0.0721688   0.3025843), wk =   0.0625000
        k(    9) = (   0.3750000   0.6495191   0.1008614), wk =   0.1250000
        k(   10) = (   0.3750000   0.6495191   0.3025843), wk =   0.1250000
        k(   11) = (   0.3750000  -0.2165064   0.1008614), wk =   0.0625000
        k(   12) = (   0.3750000  -0.2165064   0.3025843), wk =   0.0625000
        k(   13) = (  -0.1250000  -0.5051815   0.1008614), wk =   0.1250000
        k(   14) = (  -0.1250000  -0.5051815   0.3025843), wk =   0.1250000
        k(   15) = (  -0.1250000   0.3608439   0.1008614), wk =   0.1250000
        k(   16) = (  -0.1250000   0.3608439   0.3025843), wk =   0.1250000
        k(   17) = (  -0.1250000   0.0721688   0.1008614), wk =   0.0625000
        k(   18) = (  -0.1250000   0.0721688   0.3025843), wk =   0.0625000
        k(   19) = (  -0.3750000   0.2165064   0.1008614), wk =   0.0625000
        k(   20) = (  -0.3750000   0.2165064   0.3025843), wk =   0.0625000

     Dense  grid:   622947 G-vectors     FFT dimensions: ( 108, 108, 135)

     Smooth grid:   157485 G-vectors     FFT dimensions: (  72,  72,  81)

     Estimated max dynamical RAM per process >       3.32 GB

     Estimated total dynamical RAM >       6.63 GB

     Check: negative core charge=   -0.000002

     Initial potential from superposition of free atoms

     starting charge     131.8788, renormalised to     132.0000

===================================================================================
=   BAD TERMINATION OF ONE OF YOUR APPLICATION PROCESSES
=   PID 20124 RUNNING AT lr275instance
=   EXIT CODE: 9
=   CLEANING UP REMAINING PROCESSES
=   YOU CAN IGNORE THE BELOW CLEANUP MESSAGES
===================================================================================
YOUR APPLICATION TERMINATED WITH THE EXIT STRING: Killed (signal 9)
This typically refers to a problem with your application.
Please see the FAQ page for debugging suggestions
