
     Program PWSCF v.7.1 starts on  7May2024 at  2:14:50 

     This program is part of the open-source Quantum ESPRESSO suite
     for quantum simulation of materials; please cite
         "P. Giannozzi et al., J. Phys.:Condens. Matter 21 395502 (2009);
         "P. Giannozzi et al., J. Phys.:Condens. Matter 29 465901 (2017);
         "P. Giannozzi et al., J. Chem. Phys. 152 154105 (2020);
          URL http://www.quantum-espresso.org", 
     in publications or presentations arising from this work. More details at
     http://www.quantum-espresso.org/quote

     Parallel version (MPI), running on     2 processors

     MPI processes distributed on     1 nodes
     13625 MiB available memory on the printing compute node when the environment starts

     Waiting for input...
     Reading input from standard input
Warning: card &CELL ignored
Warning: card / ignored

     Current dimensions of program PWSCF are:
     Max number of different atomic species (ntypx) = 10
     Max number of k-points (npk) =  40000
     Max angular momentum in pseudopotentials (lmaxx) =  4
     file Mg.pbe-spnl-kjpaw_psl.1.0.0.UPF: wavefunction(s)  2P renormalized
     Message from routine setup:
     using ibrav=0 with symmetry is DISCOURAGED, use correct ibrav instead

     R & G space division:  proc/nbgrp/npool/nimage =       2
     Subspace diagonalization in iterative solution of the eigenvalue problem:
     a serial algorithm will be used


     Parallelization info
     --------------------
     sticks:   dense  smooth     PW     G-vecs:    dense   smooth      PW
     Min         696     342     99                33838    11922    1893
     Max         697     343    100                33843    11925    1898
     Sum        1393     685    199                67681    23847    3791

     Using Slab Decomposition



     bravais-lattice index     =            0
     lattice parameter (alat)  =       5.9943  a.u.
     unit-cell volume          =     302.3186 (a.u.)^3
     number of atoms/cell      =            2
     number of atomic types    =            1
     number of electrons       =        20.00
     number of Kohn-Sham states=           14
     kinetic-energy cutoff     =      70.0000  Ry
     charge density cutoff     =     560.0000  Ry
     scf convergence threshold =      1.0E-07
     mixing beta               =       0.7000
     number of iterations used =            8  plain     mixing
     energy convergence thresh.=      1.0E-04
     force convergence thresh. =      1.0E-03
     Exchange-correlation= SLA  PW   PBX  PBC
                           (   1   4   3   4   0   0   0)
     nstep                     =           50


     celldm(1)=   5.994255  celldm(2)=   0.000000  celldm(3)=   0.000000
     celldm(4)=   0.000000  celldm(5)=   0.000000  celldm(6)=   0.000000

     crystal axes: (cart. coord. in units of alat)
               a(1) = (   1.000000   0.000000   0.000000 )  
               a(2) = (  -0.500000   0.866025   0.000000 )  
               a(3) = (   0.000000   0.000000   1.620797 )  

     reciprocal axes: (cart. coord. in units 2 pi/alat)
               b(1) = (  1.000000  0.577350 -0.000000 )  
               b(2) = (  0.000000  1.154701  0.000000 )  
               b(3) = (  0.000000 -0.000000  0.616981 )  


     PseudoPot. # 1 for Mg read from file:
     /home/bond/Software/qe-7.1/pseudo/Mg.pbe-spnl-kjpaw_psl.1.0.0.UPF
     MD5 check sum: fda14e0d92a6a9a5ebed782e5a4b3067
     Pseudo is Projector augmented-wave + core cor, Zval = 10.0
     Generated using &quot;atomic&quot; code by A. Dal Corso  v.6.3
     Shape of augmentation charge: PSQ
     Using radial grid of 1129 points,  4 beta functions with: 
                l(1) =   0
                l(2) =   0
                l(3) =   1
                l(4) =   1
     Q(r) pseudized with 0 coefficients 


     atomic species   valence    mass     pseudopotential
        Mg            10.00    24.30500     Mg( 1.00)

     24 Sym. Ops., with inversion, found (12 have fractional translation)



   Cartesian axes

     site n.     atom                  positions (alat units)
         1           Mg  tau(   1) = (  -0.0000000   0.5773507   0.4051988  )
         2           Mg  tau(   2) = (   0.4999995   0.2886738   1.2155964  )

     number of k points=    15  Methfessel-Paxton smearing, width (Ry)=  0.0200
                       cart. coord. in units 2pi/alat
        k(    1) = (   0.0000000   0.0000000   0.0000000), wk =   0.0160000
        k(    2) = (   0.0000000   0.0000000   0.1233961), wk =   0.0320000
        k(    3) = (   0.0000000   0.0000000   0.2467922), wk =   0.0320000
        k(    4) = (   0.0000000   0.2309401   0.0000000), wk =   0.0960000
        k(    5) = (   0.0000000   0.2309401   0.1233961), wk =   0.1920000
        k(    6) = (   0.0000000   0.2309401   0.2467922), wk =   0.1920000
        k(    7) = (   0.0000000   0.4618802   0.0000000), wk =   0.0960000
        k(    8) = (   0.0000000   0.4618802   0.1233961), wk =   0.1920000
        k(    9) = (   0.0000000   0.4618802   0.2467922), wk =   0.1920000
        k(   10) = (   0.2000000   0.3464102   0.0000000), wk =   0.0960000
        k(   11) = (   0.2000000   0.3464102   0.1233961), wk =   0.1920000
        k(   12) = (   0.2000000   0.3464102   0.2467922), wk =   0.1920000
        k(   13) = (   0.2000000   0.5773503   0.0000000), wk =   0.0960000
        k(   14) = (   0.2000000   0.5773503   0.1233961), wk =   0.1920000
        k(   15) = (   0.2000000   0.5773503   0.2467922), wk =   0.1920000

     Dense  grid:    67681 G-vectors     FFT dimensions: (  45,  45,  80)

     Smooth grid:    23847 G-vectors     FFT dimensions: (  32,  32,  54)

     Estimated max dynamical RAM per process >      51.30 MB

     Estimated total dynamical RAM >     102.61 MB

     Check: negative core charge=   -0.000003

     Initial potential from superposition of free atoms

     starting charge      19.9982, renormalised to      20.0000
     Starting wfcs are   10 randomized atomic wfcs +    4 random wfcs
     Checking if some PAW data can be deallocated... 

     total cpu time spent up to now is        1.6 secs

     Self-consistent Calculation

     iteration #  1     ecut=    70.00 Ry     beta= 0.70
     Davidson diagonalization with overlap
     ethr =  1.00E-02,  avg # of iterations =  5.2

     Threshold (ethr) on eigenvalues was too large:
     Diagonalizing with lowered threshold

     Davidson diagonalization with overlap
     ethr =  3.53E-05,  avg # of iterations =  5.3

     total cpu time spent up to now is        4.1 secs

     total energy              =    -282.79759991 Ry
     estimated scf accuracy    <       0.00746833 Ry

     iteration #  2     ecut=    70.00 Ry     beta= 0.70
     Davidson diagonalization with overlap
     ethr =  3.73E-05,  avg # of iterations =  1.0

     total cpu time spent up to now is        5.0 secs

     total energy              =    -282.79769467 Ry
     estimated scf accuracy    <       0.00061971 Ry

     iteration #  3     ecut=    70.00 Ry     beta= 0.70
     Davidson diagonalization with overlap
     ethr =  3.10E-06,  avg # of iterations =  2.0

     total cpu time spent up to now is        6.1 secs

     total energy              =    -282.79770705 Ry
     estimated scf accuracy    <       0.00000196 Ry

     iteration #  4     ecut=    70.00 Ry     beta= 0.70
     Davidson diagonalization with overlap
     ethr =  9.78E-09,  avg # of iterations =  4.4

     total cpu time spent up to now is        7.5 secs

     End of self-consistent calculation

          k = 0.0000 0.0000 0.0000 (  2971 PWs)   bands (ev):

   -70.3869 -70.3835 -37.1601 -37.1236 -37.1205 -37.1205 -37.1147 -37.1147
    -1.4523   3.8691   4.3639  16.6456  16.8094  16.8098

          k = 0.0000 0.0000 0.1234 (  2942 PWs)   bands (ev):

   -70.3865 -70.3838 -37.1565 -37.1271 -37.1196 -37.1196 -37.1151 -37.1151
    -1.2235   2.1343   6.4920  15.5578  16.8204  16.9559

          k = 0.0000 0.0000 0.2468 (  2954 PWs)   bands (ev):

   -70.3857 -70.3847 -37.1474 -37.1365 -37.1183 -37.1183 -37.1166 -37.1166
    -0.5409   0.5846   9.2192  12.2898  17.3083  17.3106

          k = 0.0000 0.2309 0.0000 (  2966 PWs)   bands (ev):

   -70.3859 -70.3831 -37.1556 -37.1294 -37.1254 -37.1242 -37.1231 -37.1164
    -0.6540   4.5963   5.1258  10.8301  14.0651  14.4917

          k = 0.0000 0.2309 0.1234 (  2973 PWs)   bands (ev):

   -70.3856 -70.3833 -37.1534 -37.1306 -37.1283 -37.1226 -37.1225 -37.1170
    -0.4273   2.8979   7.2011  11.0371  13.7729  14.2550

          k = 0.0000 0.2309 0.2468 (  2989 PWs)   bands (ev):

   -70.3849 -70.3840 -37.1471 -37.1388 -37.1261 -37.1235 -37.1209 -37.1188
     0.2488   1.3638   9.8294  11.6209  12.4099  13.2052

          k = 0.0000 0.4619 0.0000 (  2986 PWs)   bands (ev):

   -70.3840 -70.3826 -37.1468 -37.1441 -37.1387 -37.1308 -37.1279 -37.1193
     1.6963   5.3961   6.7846   7.6391  10.4759  10.9631

          k = 0.0000 0.4619 0.1234 (  2999 PWs)   bands (ev):

   -70.3839 -70.3827 -37.1500 -37.1427 -37.1387 -37.1295 -37.1271 -37.1201
     1.9164   5.0146   5.8929   8.8436   9.5680  12.6524

          k = 0.0000 0.4619 0.2468 (  2988 PWs)   bands (ev):

   -70.3835 -70.3831 -37.1507 -37.1477 -37.1329 -37.1294 -37.1247 -37.1222
     2.5720   3.6442   6.4198   7.4574  12.0132  13.4960

          k = 0.2000 0.3464 0.0000 (  2992 PWs)   bands (ev):

   -70.3844 -70.3826 -37.1490 -37.1371 -37.1370 -37.1294 -37.1271 -37.1221
     0.9202   6.0548   6.4501   8.4066   9.0338  13.1241

          k = 0.2000 0.3464 0.1234 (  2992 PWs)   bands (ev):

   -70.3843 -70.3828 -37.1492 -37.1393 -37.1347 -37.1307 -37.1249 -37.1227
     1.1427   4.3937   8.1581   8.6029   9.5072  11.9874

          k = 0.2000 0.3464 0.2468 (  2989 PWs)   bands (ev):

   -70.3838 -70.3832 -37.1480 -37.1442 -37.1310 -37.1303 -37.1241 -37.1239
     1.8061   2.8983   9.1486   9.2459  10.2576  10.6363

          k = 0.2000 0.5774 0.0000 (  2990 PWs)   bands (ev):

   -70.3833 -70.3826 -37.1438 -37.1420 -37.1384 -37.1347 -37.1330 -37.1259
     3.9567   3.9976   7.5156   8.8130   9.1690   9.4380

          k = 0.2000 0.5774 0.1234 (  2992 PWs)   bands (ev):

   -70.3832 -70.3827 -37.1475 -37.1430 -37.1386 -37.1319 -37.1309 -37.1259
     4.1622   4.2064   7.1566   7.4376   8.3316  10.8924

          k = 0.2000 0.5774 0.2468 (  2997 PWs)   bands (ev):

   -70.3831 -70.3828 -37.1495 -37.1479 -37.1352 -37.1323 -37.1273 -37.1258
     4.7416   4.7824   6.0252   6.0290   8.7694   9.7656

     the Fermi energy is     5.6238 ev

!    total energy              =    -282.79770941 Ry
     total all-electron energy =      -801.338247 Ry
     estimated scf accuracy    <       0.00000006 Ry
     smearing contrib. (-TS)   =       0.00083578 Ry
     internal energy E=F+TS    =    -282.79854519 Ry

     The total energy is F=E-TS. E is the sum of the following terms:
     one-electron contribution =    -211.28159939 Ry
     hartree contribution      =     101.94988716 Ry
     xc contribution           =     -35.10855202 Ry
     ewald contribution        =    -108.43493621 Ry
     one-center paw contrib.   =     -29.92334473 Ry

     convergence has been achieved in   4 iterations

     Forces acting on atoms (cartesian axes, Ry/au):

     atom    1 type  1   force =     0.00000000   -0.00000000    0.00000000
     atom    2 type  1   force =     0.00000000    0.00000000    0.00000000

     Total force =     0.000000     Total SCF correction =     0.000004


     Computing stress (Cartesian axis) and pressure

          total   stress  (Ry/bohr**3)                   (kbar)     P=       -2.30
  -0.00002237   0.00000000   0.00000000           -3.29        0.00        0.00
   0.00000000  -0.00002237   0.00000000            0.00       -3.29        0.00
   0.00000000   0.00000000  -0.00000224            0.00        0.00       -0.33


     BFGS Geometry Optimization
     Energy error            =      0.0E+00 Ry
     Gradient error          =      1.0E-20 Ry/Bohr

     bfgs converged in   1 scf cycles and   0 bfgs steps
     (criteria: energy <  1.0E-04 Ry, force <  1.0E-03 Ry/Bohr)

     End of BFGS Geometry Optimization

     Final energy             =    -282.7977094140 Ry
Begin final coordinates

ATOMIC_POSITIONS (angstrom)
Mg            0.0000000000        1.8313700000        1.2853000000
Mg            1.5860100000        0.9156800000        3.8559000000
End final coordinates



     init_run     :      1.20s CPU      1.42s WALL (       1 calls)
     electrons    :      4.89s CPU      5.86s WALL (       1 calls)
     forces       :      0.32s CPU      0.39s WALL (       1 calls)
     stress       :      0.97s CPU      1.14s WALL (       1 calls)

     Called by init_run:
     wfcinit      :      0.25s CPU      0.29s WALL (       1 calls)
     potinit      :      0.37s CPU      0.43s WALL (       1 calls)
     hinit0       :      0.51s CPU      0.59s WALL (       1 calls)

     Called by electrons:
     c_bands      :      3.41s CPU      4.08s WALL (       5 calls)
     sum_band     :      0.77s CPU      0.90s WALL (       5 calls)
     v_of_rho     :      0.38s CPU      0.46s WALL (       5 calls)
     newd         :      0.16s CPU      0.21s WALL (       5 calls)
     PAW_pot      :      0.27s CPU      0.32s WALL (       5 calls)
     mix_rho      :      0.03s CPU      0.04s WALL (       5 calls)

     Called by c_bands:
     init_us_2    :      0.09s CPU      0.11s WALL (     195 calls)
     init_us_2:cp :      0.09s CPU      0.11s WALL (     195 calls)
     cegterg      :      3.26s CPU      3.90s WALL (      75 calls)

     Called by *egterg:
     cdiaghg      :      0.14s CPU      0.16s WALL (     329 calls)
     h_psi        :      2.63s CPU      3.12s WALL (     359 calls)
     s_psi        :      0.07s CPU      0.07s WALL (     359 calls)
     g_psi        :      0.02s CPU      0.02s WALL (     269 calls)

     Called by h_psi:
     h_psi:calbec :      0.11s CPU      0.14s WALL (     359 calls)
     vloc_psi     :      2.41s CPU      2.87s WALL (     359 calls)
     add_vuspsi   :      0.08s CPU      0.09s WALL (     359 calls)

     General routines
     calbec       :      0.17s CPU      0.21s WALL (     509 calls)
     fft          :      0.50s CPU      0.58s WALL (      89 calls)
     ffts         :      0.15s CPU      0.17s WALL (      10 calls)
     fftw         :      2.36s CPU      2.80s WALL (    6834 calls)
     interpolate  :      0.17s CPU      0.19s WALL (       5 calls)

     Parallel routines

     PWSCF        :      7.57s CPU      9.03s WALL


   This run was terminated on:   2:14:59   7May2024            

=------------------------------------------------------------------------------=
   JOB DONE.
=------------------------------------------------------------------------------=
