
     Program PWSCF v.7.1 starts on  6May2024 at  6:18:42 

     This program is part of the open-source Quantum ESPRESSO suite
     for quantum simulation of materials; please cite
         "P. Giannozzi et al., J. Phys.:Condens. Matter 21 395502 (2009);
         "P. Giannozzi et al., J. Phys.:Condens. Matter 29 465901 (2017);
         "P. Giannozzi et al., J. Chem. Phys. 152 154105 (2020);
          URL http://www.quantum-espresso.org", 
     in publications or presentations arising from this work. More details at
     http://www.quantum-espresso.org/quote

     Parallel version (MPI), running on     2 processors

     MPI processes distributed on     1 nodes
     13493 MiB available memory on the printing compute node when the environment starts

     Waiting for input...
     Reading input from standard input
Warning: card &CELL ignored
Warning: card / ignored

     Current dimensions of program PWSCF are:
     Max number of different atomic species (ntypx) = 10
     Max number of k-points (npk) =  40000
     Max angular momentum in pseudopotentials (lmaxx) =  4
     file Ba.pbe-spn-kjpaw_psl.1.0.0.UPF: wavefunction(s)  5S 6S renormalized
     Message from routine setup:
     using ibrav=0 with symmetry is DISCOURAGED, use correct ibrav instead

     R & G space division:  proc/nbgrp/npool/nimage =       2
     Subspace diagonalization in iterative solution of the eigenvalue problem:
     a serial algorithm will be used


     Parallelization info
     --------------------
     sticks:   dense  smooth     PW     G-vecs:    dense   smooth      PW
     Min        1383     691    197                46122    16282    2460
     Max        1384     692    198                46125    16283    2461
     Sum        2767    1383    395                92247    32565    4921

     Using Slab Decomposition



     bravais-lattice index     =            0
     lattice parameter (alat)  =       8.1173  a.u.
     unit-cell volume          =     411.7292 (a.u.)^3
     number of atoms/cell      =            1
     number of atomic types    =            1
     number of electrons       =        10.00
     number of Kohn-Sham states=            9
     kinetic-energy cutoff     =      70.0000  Ry
     charge density cutoff     =     560.0000  Ry
     scf convergence threshold =      1.0E-07
     mixing beta               =       0.7000
     number of iterations used =            8  plain     mixing
     energy convergence thresh.=      1.0E-04
     force convergence thresh. =      1.0E-03
     Exchange-correlation= SLA  PW   PBX  PBC
                           (   1   4   3   4   0   0   0)
     nstep                     =           50


     celldm(1)=   8.117292  celldm(2)=   0.000000  celldm(3)=   0.000000
     celldm(4)=   0.000000  celldm(5)=   0.000000  celldm(6)=   0.000000

     crystal axes: (cart. coord. in units of alat)
               a(1) = (  -0.577350   0.577350   0.577350 )  
               a(2) = (   0.577350  -0.577350   0.577350 )  
               a(3) = (   0.577350   0.577350  -0.577350 )  

     reciprocal axes: (cart. coord. in units 2 pi/alat)
               b(1) = (  0.000000  0.866025  0.866025 )  
               b(2) = (  0.866025  0.000000  0.866025 )  
               b(3) = (  0.866025  0.866025  0.000000 )  


     PseudoPot. # 1 for Ba read from file:
     /home/bond/Software/qe-7.1/pseudo/Ba.pbe-spn-kjpaw_psl.1.0.0.UPF
     MD5 check sum: 7cfe25f1fe7574a4710541d5a11d6531
     Pseudo is Projector augmented-wave + core cor, Zval = 10.0
     Generated using &quot;atomic&quot; code by A. Dal Corso  v.6.2.2
     Shape of augmentation charge: PSQ
     Using radial grid of 1251 points,  7 beta functions with: 
                l(1) =   0
                l(2) =   0
                l(3) =   0
                l(4) =   1
                l(5) =   1
                l(6) =   2
                l(7) =   2
     Q(r) pseudized with 0 coefficients 


     atomic species   valence    mass     pseudopotential
        Ba            10.00   137.32700     Ba( 1.00)

     48 Sym. Ops., with inversion, found



   Cartesian axes

     site n.     atom                  positions (alat units)
         1           Ba  tau(   1) = (   0.0000000   0.0000000   0.0000000  )

     number of k points=    10  Methfessel-Paxton smearing, width (Ry)=  0.0200
                       cart. coord. in units 2pi/alat
        k(    1) = (   0.0000000   0.0000000   0.0000000), wk =   0.0160000
        k(    2) = (   0.1732051   0.1732051   0.0000000), wk =   0.1920000
        k(    3) = (   0.3464102   0.3464102   0.0000000), wk =   0.1920000
        k(    4) = (   0.3464102   0.1732051   0.1732051), wk =   0.3840000
        k(    5) = (   0.5196152   0.3464102   0.1732051), wk =   0.3840000
        k(    6) = (   0.3464102   0.3464102   0.3464102), wk =   0.1280000
        k(    7) = (   0.0000000   0.0000000   0.3464102), wk =   0.0960000
        k(    8) = (   0.0000000  -0.1732051   0.5196152), wk =   0.3840000
        k(    9) = (  -0.6928203  -0.1732051  -0.1732051), wk =   0.1280000
        k(   10) = (   0.0000000   0.0000000   0.6928203), wk =   0.0960000

     Dense  grid:    92247 G-vectors     FFT dimensions: (  64,  64,  64)

     Smooth grid:    32565 G-vectors     FFT dimensions: (  45,  45,  45)

     Estimated max dynamical RAM per process >     188.98 MB

     Estimated total dynamical RAM >     377.95 MB

     Initial potential from superposition of free atoms

     starting charge       9.9830, renormalised to      10.0000
     Starting wfcs are    5 randomized atomic wfcs +    4 random wfcs
     Checking if some PAW data can be deallocated... 

     total cpu time spent up to now is        2.3 secs

     Self-consistent Calculation

     iteration #  1     ecut=    70.00 Ry     beta= 0.70
     Davidson diagonalization with overlap
     ethr =  1.00E-02,  avg # of iterations =  7.6

     Threshold (ethr) on eigenvalues was too large:
     Diagonalizing with lowered threshold

     Davidson diagonalization with overlap
     ethr =  8.79E-06,  avg # of iterations =  8.4

     total cpu time spent up to now is        6.3 secs

     total energy              =    -436.18144046 Ry
     estimated scf accuracy    <       0.00089056 Ry

     iteration #  2     ecut=    70.00 Ry     beta= 0.70
     Davidson diagonalization with overlap
     ethr =  8.91E-06,  avg # of iterations =  1.2

     total cpu time spent up to now is        7.8 secs

     total energy              =    -436.18155353 Ry
     estimated scf accuracy    <       0.00009655 Ry

     iteration #  3     ecut=    70.00 Ry     beta= 0.70
     Davidson diagonalization with overlap
     ethr =  9.65E-07,  avg # of iterations =  2.6

     total cpu time spent up to now is        9.5 secs

     total energy              =    -436.18156549 Ry
     estimated scf accuracy    <       0.00000370 Ry

     iteration #  4     ecut=    70.00 Ry     beta= 0.70
     Davidson diagonalization with overlap
     ethr =  3.70E-08,  avg # of iterations =  3.8

     total cpu time spent up to now is       11.2 secs

     total energy              =    -436.18156689 Ry
     estimated scf accuracy    <       0.00000092 Ry

     iteration #  5     ecut=    70.00 Ry     beta= 0.70
     Davidson diagonalization with overlap
     ethr =  9.21E-09,  avg # of iterations =  2.3

     total cpu time spent up to now is       12.8 secs

     total energy              =    -436.18156705 Ry
     estimated scf accuracy    <       0.00000010 Ry

     iteration #  6     ecut=    70.00 Ry     beta= 0.70
     Davidson diagonalization with overlap
     ethr =  1.03E-09,  avg # of iterations =  2.1

     total cpu time spent up to now is       14.6 secs

     End of self-consistent calculation

          k = 0.0000 0.0000 0.0000 (  4093 PWs)   bands (ev):

   -22.7364  -7.6631  -7.6631  -7.6631   3.3390   7.9698   7.9698   7.9699
     9.4109

          k = 0.1732 0.1732 0.0000 (  4068 PWs)   bands (ev):

   -22.7193  -7.8483  -7.7204  -7.6644   4.0495   7.4619   7.4912   8.7365
     9.0728

          k = 0.3464 0.3464 0.0000 (  4072 PWs)   bands (ev):

   -22.6914  -8.1264  -7.8105  -7.6667   5.1030   6.8744   7.2062   9.4291
     9.8039

          k = 0.3464 0.1732 0.1732 (  4054 PWs)   bands (ev):

   -22.6968  -8.0336  -7.8020  -7.7039   5.1185   6.7943   7.0890   8.9994
     9.9080

          k = 0.5196 0.3464 0.1732 (  4079 PWs)   bands (ev):

   -22.6828  -8.1102  -7.8988  -7.7152   5.7268   6.7399   6.9958   9.2564
    10.0128

          k = 0.3464 0.3464 0.3464 (  4057 PWs)   bands (ev):

   -22.6855  -8.0463  -7.8356  -7.8356   6.3205   6.5950   6.5950   9.9790
    10.8523

          k = 0.0000 0.0000 0.3464 (  4081 PWs)   bands (ev):

   -22.7038  -7.8758  -7.7811  -7.7811   4.6823   7.3781   7.8590   7.8590
     8.7088

          k = 0.0000-0.1732 0.5196 (  4098 PWs)   bands (ev):

   -22.6784  -8.0804  -7.8764  -7.7943   5.6686   6.5131   7.6068   8.2519
    10.0161

          k =-0.6928-0.1732-0.1732 (  4085 PWs)   bands (ev):

   -22.6670  -8.0303  -8.0303  -7.8194   6.1374   6.1374   7.1626   9.5765
     9.5765

          k = 0.0000 0.0000 0.6928 (  4056 PWs)   bands (ev):

   -22.6572  -8.0142  -7.9797  -7.9797   5.7260   5.7330   9.2528   9.2528
     9.7621

     the Fermi energy is     6.1686 ev

!    total energy              =    -436.18156706 Ry
     total all-electron energy =    -16271.274683 Ry
     estimated scf accuracy    <          4.4E-09 Ry
     smearing contrib. (-TS)   =       0.00080863 Ry
     internal energy E=F+TS    =    -436.18237569 Ry

     The total energy is F=E-TS. E is the sum of the following terms:
     one-electron contribution =     -10.70769238 Ry
     hartree contribution      =       8.47180295 Ry
     xc contribution           =     -20.17109747 Ry
     ewald contribution        =     -38.82660094 Ry
     one-center paw contrib.   =    -374.94878785 Ry

     convergence has been achieved in   6 iterations

     Forces acting on atoms (cartesian axes, Ry/au):

     atom    1 type  1   force =     0.00000000    0.00000000    0.00000000

     Total force =     0.000000     Total SCF correction =     0.000000


     Computing stress (Cartesian axis) and pressure

          total   stress  (Ry/bohr**3)                   (kbar)     P=        1.86
   0.00001266  -0.00000000  -0.00000000            1.86       -0.00       -0.00
  -0.00000000   0.00001266  -0.00000000           -0.00        1.86       -0.00
  -0.00000000  -0.00000000   0.00001266           -0.00       -0.00        1.86


     BFGS Geometry Optimization
     Energy error            =      0.0E+00 Ry
     Gradient error          =      0.0E+00 Ry/Bohr

     bfgs converged in   1 scf cycles and   0 bfgs steps
     (criteria: energy <  1.0E-04 Ry, force <  1.0E-03 Ry/Bohr)

     End of BFGS Geometry Optimization

     Final energy             =    -436.1815670613 Ry
Begin final coordinates

ATOMIC_POSITIONS (angstrom)
Ba            0.0000000000        0.0000000000        0.0000000000
End final coordinates



     init_run     :      1.65s CPU      1.84s WALL (       1 calls)
     electrons    :     10.92s CPU     12.29s WALL (       1 calls)
     forces       :      0.51s CPU      0.69s WALL (       1 calls)
     stress       :      2.64s CPU      3.04s WALL (       1 calls)

     Called by init_run:
     wfcinit      :      0.28s CPU      0.30s WALL (       1 calls)
     potinit      :      0.39s CPU      0.42s WALL (       1 calls)
     hinit0       :      0.71s CPU      0.77s WALL (       1 calls)

     Called by electrons:
     c_bands      :      5.63s CPU      5.88s WALL (       7 calls)
     sum_band     :      2.43s CPU      2.98s WALL (       7 calls)
     v_of_rho     :      0.73s CPU      0.78s WALL (       7 calls)
     newd         :      1.29s CPU      1.82s WALL (       7 calls)
     PAW_pot      :      1.15s CPU      1.20s WALL (       7 calls)
     mix_rho      :      0.06s CPU      0.07s WALL (       7 calls)

     Called by c_bands:
     init_us_2    :      0.17s CPU      0.19s WALL (     170 calls)
     init_us_2:cp :      0.17s CPU      0.19s WALL (     170 calls)
     cegterg      :      5.36s CPU      5.60s WALL (      70 calls)

     Called by *egterg:
     cdiaghg      :      0.07s CPU      0.07s WALL (     340 calls)
     h_psi        :      4.95s CPU      5.17s WALL (     360 calls)
     s_psi        :      0.09s CPU      0.09s WALL (     360 calls)
     g_psi        :      0.02s CPU      0.02s WALL (     280 calls)

     Called by h_psi:
     h_psi:calbec :      0.13s CPU      0.14s WALL (     360 calls)
     vloc_psi     :      4.70s CPU      4.90s WALL (     360 calls)
     add_vuspsi   :      0.10s CPU      0.11s WALL (     360 calls)

     General routines
     calbec       :      0.19s CPU      0.20s WALL (     480 calls)
     fft          :      0.71s CPU      0.79s WALL (     115 calls)
     ffts         :      0.12s CPU      0.12s WALL (      14 calls)
     fftw         :      4.93s CPU      5.15s WALL (    4490 calls)
     interpolate  :      0.14s CPU      0.15s WALL (       7 calls)

     Parallel routines

     PWSCF        :     16.13s CPU     18.32s WALL


   This run was terminated on:   6:19: 0   6May2024            

=------------------------------------------------------------------------------=
   JOB DONE.
=------------------------------------------------------------------------------=
