
     Program PWSCF v.7.1 starts on  6May2024 at 23: 3:25 

     This program is part of the open-source Quantum ESPRESSO suite
     for quantum simulation of materials; please cite
         "P. Giannozzi et al., J. Phys.:Condens. Matter 21 395502 (2009);
         "P. Giannozzi et al., J. Phys.:Condens. Matter 29 465901 (2017);
         "P. Giannozzi et al., J. Chem. Phys. 152 154105 (2020);
          URL http://www.quantum-espresso.org", 
     in publications or presentations arising from this work. More details at
     http://www.quantum-espresso.org/quote

     Parallel version (MPI), running on     2 processors

     MPI processes distributed on     1 nodes
     13578 MiB available memory on the printing compute node when the environment starts

     Waiting for input...
     Reading input from standard input
Warning: card &CELL ignored
Warning: card / ignored

     Current dimensions of program PWSCF are:
     Max number of different atomic species (ntypx) = 10
     Max number of k-points (npk) =  40000
     Max angular momentum in pseudopotentials (lmaxx) =  4
     file Ba.pbe-spn-kjpaw_psl.1.0.0.UPF: wavefunction(s)  5S 6S renormalized
     file Bi.pbe-dn-kjpaw_psl.1.0.0.UPF: wavefunction(s)  6P 5D renormalized
     file F.pbe-n-kjpaw_psl.1.0.0.UPF: wavefunction(s)  2S 2P renormalized
     file O.pbe-n-kjpaw_psl.1.0.0.UPF: wavefunction(s)  2S 2P renormalized
     Message from routine setup:
     using ibrav=0 with symmetry is DISCOURAGED, use correct ibrav instead

     R & G space division:  proc/nbgrp/npool/nimage =       2
     Subspace diagonalization in iterative solution of the eigenvalue problem:
     a serial algorithm will be used


     Parallelization info
     --------------------
     sticks:   dense  smooth     PW     G-vecs:    dense   smooth      PW
     Min        1694     846    240                74488    26256    3904
     Max        1695     847    241                74493    26259    3905
     Sum        3389    1693    481               148981    52515    7809

     Using Slab Decomposition



     bravais-lattice index     =            0
     lattice parameter (alat)  =       8.7305  a.u.
     unit-cell volume          =     665.4609 (a.u.)^3
     number of atoms/cell      =            5
     number of atomic types    =            4
     number of electrons       =        44.00
     number of Kohn-Sham states=           26
     kinetic-energy cutoff     =      70.0000  Ry
     charge density cutoff     =     560.0000  Ry
     scf convergence threshold =      1.0E-07
     mixing beta               =       0.7000
     number of iterations used =            8  plain     mixing
     energy convergence thresh.=      1.0E-04
     force convergence thresh. =      1.0E-03
     Exchange-correlation= SLA  PW   PBX  PBC
                           (   1   4   3   4   0   0   0)
     nstep                     =           50


     celldm(1)=   8.730535  celldm(2)=   0.000000  celldm(3)=   0.000000
     celldm(4)=   0.000000  celldm(5)=   0.000000  celldm(6)=   0.000000

     crystal axes: (cart. coord. in units of alat)
               a(1) = (   1.000000   0.000000   0.000000 )  
               a(2) = (   0.000000   1.000000   0.000000 )  
               a(3) = (   0.000000   0.000000   1.000000 )  

     reciprocal axes: (cart. coord. in units 2 pi/alat)
               b(1) = (  1.000000  0.000000  0.000000 )  
               b(2) = (  0.000000  1.000000  0.000000 )  
               b(3) = (  0.000000  0.000000  1.000000 )  


     PseudoPot. # 1 for Ba read from file:
     /home/bond/Software/qe-7.1/pseudo/Ba.pbe-spn-kjpaw_psl.1.0.0.UPF
     MD5 check sum: 7cfe25f1fe7574a4710541d5a11d6531
     Pseudo is Projector augmented-wave + core cor, Zval = 10.0
     Generated using &quot;atomic&quot; code by A. Dal Corso  v.6.2.2
     Shape of augmentation charge: PSQ
     Using radial grid of 1251 points,  7 beta functions with: 
                l(1) =   0
                l(2) =   0
                l(3) =   0
                l(4) =   1
                l(5) =   1
                l(6) =   2
                l(7) =   2
     Q(r) pseudized with 0 coefficients 


     PseudoPot. # 2 for Bi read from file:
     /home/bond/Software/qe-7.1/pseudo/Bi.pbe-dn-kjpaw_psl.1.0.0.UPF
     MD5 check sum: 266ded784ae3bc462508ed03f0f37963
     Pseudo is Projector augmented-wave + core cor, Zval = 15.0
     Generated using &quot;atomic&quot; code by A. Dal Corso  v.6.2.2
     Shape of augmentation charge: PSQ
     Using radial grid of 1283 points,  6 beta functions with: 
                l(1) =   0
                l(2) =   0
                l(3) =   1
                l(4) =   1
                l(5) =   2
                l(6) =   2
     Q(r) pseudized with 0 coefficients 


     PseudoPot. # 3 for F  read from file:
     /home/bond/Software/qe-7.1/pseudo/F.pbe-n-kjpaw_psl.1.0.0.UPF
     MD5 check sum: 66d718ea72839a4268ab2a9540e8cdd4
     Pseudo is Projector augmented-wave + core cor, Zval =  7.0
     Generated using &quot;atomic&quot; code by A. Dal Corso  v.6.3
     Shape of augmentation charge: PSQ
     Using radial grid of 1105 points,  4 beta functions with: 
                l(1) =   0
                l(2) =   0
                l(3) =   1
                l(4) =   1
     Q(r) pseudized with 0 coefficients 


     PseudoPot. # 4 for O  read from file:
     /home/bond/Software/qe-7.1/pseudo/O.pbe-n-kjpaw_psl.1.0.0.UPF
     MD5 check sum: e99d9cef9b487d1ca56f5b95ecd0fd7a
     Pseudo is Projector augmented-wave + core cor, Zval =  6.0
     Generated using &quot;atomic&quot; code by A. Dal Corso  v.6.3
     Shape of augmentation charge: PSQ
     Using radial grid of 1095 points,  4 beta functions with: 
                l(1) =   0
                l(2) =   0
                l(3) =   1
                l(4) =   1
     Q(r) pseudized with 0 coefficients 


     atomic species   valence    mass     pseudopotential
        Ba            10.00   137.32700     Ba( 1.00)
        Bi            15.00   208.98040     Bi( 1.00)
        F              7.00    18.99840     F ( 1.00)
        O              6.00    15.99900     O ( 1.00)

     16 Sym. Ops., with inversion, found



   Cartesian axes

     site n.     atom                  positions (alat units)
         1           Ba  tau(   1) = (   0.5000000   0.5000000   0.5000000  )
         2           Bi  tau(   2) = (   0.0000000   0.0000000   0.0000000  )
         3           O   tau(   3) = (   0.0000000   0.0000000   0.5000000  )
         4           O   tau(   4) = (   0.5000000   0.0000000   0.0000000  )
         5           F   tau(   5) = (   0.0000000   0.5000000   0.0000000  )

     number of k points=    18  Gaussian smearing, width (Ry)=  0.0200
                       cart. coord. in units 2pi/alat
        k(    1) = (   0.0000000   0.0000000   0.0000000), wk =   0.0160000
        k(    2) = (   0.0000000   0.0000000   0.2000000), wk =   0.0640000
        k(    3) = (   0.0000000   0.0000000   0.4000000), wk =   0.0640000
        k(    4) = (   0.0000000   0.2000000   0.2000000), wk =   0.1280000
        k(    5) = (   0.0000000   0.2000000   0.4000000), wk =   0.1280000
        k(    6) = (   0.0000000   0.4000000   0.4000000), wk =   0.1280000
        k(    7) = (   0.2000000   0.2000000   0.2000000), wk =   0.1280000
        k(    8) = (   0.2000000   0.2000000   0.4000000), wk =   0.2560000
        k(    9) = (   0.2000000   0.4000000   0.4000000), wk =   0.2560000
        k(   10) = (   0.4000000   0.4000000   0.4000000), wk =   0.1280000
        k(   11) = (   0.0000000   0.2000000   0.0000000), wk =   0.0320000
        k(   12) = (   0.0000000   0.4000000   0.0000000), wk =   0.0320000
        k(   13) = (   0.2000000   0.0000000   0.2000000), wk =   0.0640000
        k(   14) = (   0.2000000   0.4000000   0.0000000), wk =   0.1280000
        k(   15) = (   0.4000000   0.0000000   0.2000000), wk =   0.1280000
        k(   16) = (   0.4000000   0.0000000   0.4000000), wk =   0.0640000
        k(   17) = (   0.2000000   0.4000000   0.2000000), wk =   0.1280000
        k(   18) = (   0.4000000   0.2000000   0.4000000), wk =   0.1280000

     Dense  grid:   148981 G-vectors     FFT dimensions: (  72,  72,  72)

     Smooth grid:    52515 G-vectors     FFT dimensions: (  48,  48,  48)

     Estimated max dynamical RAM per process >     338.30 MB

     Estimated total dynamical RAM >     676.59 MB

     Initial potential from superposition of free atoms

     starting charge      43.9822, renormalised to      44.0000
     Starting wfcs are   26 randomized atomic wfcs
     Checking if some PAW data can be deallocated... 

     total cpu time spent up to now is        8.3 secs

     Self-consistent Calculation

     iteration #  1     ecut=    70.00 Ry     beta= 0.70
     Davidson diagonalization with overlap
     ethr =  1.00E-02,  avg # of iterations =  2.4

     total cpu time spent up to now is       15.6 secs

     total energy              =   -1484.40714104 Ry
     estimated scf accuracy    <       1.84491606 Ry

     iteration #  2     ecut=    70.00 Ry     beta= 0.70
     Davidson diagonalization with overlap
     ethr =  4.19E-03,  avg # of iterations =  7.8

     total cpu time spent up to now is       26.3 secs

     total energy              =   -1483.78930229 Ry
     estimated scf accuracy    <      10.11047202 Ry

     iteration #  3     ecut=    70.00 Ry     beta= 0.70
     Davidson diagonalization with overlap
     ethr =  4.19E-03,  avg # of iterations =  5.5

     total cpu time spent up to now is       35.0 secs

     total energy              =   -1485.50851664 Ry
     estimated scf accuracy    <       0.23665366 Ry

     iteration #  4     ecut=    70.00 Ry     beta= 0.70
     Davidson diagonalization with overlap
     ethr =  5.38E-04,  avg # of iterations =  3.8

     total cpu time spent up to now is       42.7 secs

     total energy              =   -1485.55060275 Ry
     estimated scf accuracy    <       0.05243502 Ry

     iteration #  5     ecut=    70.00 Ry     beta= 0.70
     Davidson diagonalization with overlap
     ethr =  1.19E-04,  avg # of iterations =  4.4

     total cpu time spent up to now is       50.1 secs

     total energy              =   -1485.54136367 Ry
     estimated scf accuracy    <       0.02735741 Ry

     iteration #  6     ecut=    70.00 Ry     beta= 0.70
     Davidson diagonalization with overlap
     ethr =  6.22E-05,  avg # of iterations =  7.1

     total cpu time spent up to now is       59.4 secs

     total energy              =   -1485.54792444 Ry
     estimated scf accuracy    <       0.00114460 Ry

     iteration #  7     ecut=    70.00 Ry     beta= 0.70
     Davidson diagonalization with overlap
     c_bands:  1 eigenvalues not converged
     c_bands:  1 eigenvalues not converged
     c_bands:  1 eigenvalues not converged
     c_bands:  1 eigenvalues not converged
     ethr =  2.60E-06,  avg # of iterations = 13.0

     total cpu time spent up to now is       70.3 secs

     total energy              =   -1485.54851701 Ry
     estimated scf accuracy    <       0.00027885 Ry

     iteration #  8     ecut=    70.00 Ry     beta= 0.70
     Davidson diagonalization with overlap
     c_bands:  1 eigenvalues not converged
     ethr =  6.34E-07,  avg # of iterations =  5.0

     total cpu time spent up to now is       78.0 secs

     total energy              =   -1485.54856704 Ry
     estimated scf accuracy    <       0.00001732 Ry

     iteration #  9     ecut=    70.00 Ry     beta= 0.70
     Davidson diagonalization with overlap
     ethr =  3.94E-08,  avg # of iterations =  5.9

     total cpu time spent up to now is       87.4 secs

     total energy              =   -1485.54858324 Ry
     estimated scf accuracy    <       0.00001514 Ry

     iteration # 10     ecut=    70.00 Ry     beta= 0.70
     Davidson diagonalization with overlap
     ethr =  3.44E-08,  avg # of iterations =  2.1

     total cpu time spent up to now is       94.6 secs

     total energy              =   -1485.54858295 Ry
     estimated scf accuracy    <       0.00000475 Ry

     iteration # 11     ecut=    70.00 Ry     beta= 0.70
     Davidson diagonalization with overlap
     ethr =  1.08E-08,  avg # of iterations =  4.8

     total cpu time spent up to now is      102.8 secs

     total energy              =   -1485.54858449 Ry
     estimated scf accuracy    <       0.00000050 Ry

     iteration # 12     ecut=    70.00 Ry     beta= 0.70
     Davidson diagonalization with overlap
     ethr =  1.14E-09,  avg # of iterations =  4.5

     total cpu time spent up to now is      111.1 secs

     End of self-consistent calculation

          k = 0.0000 0.0000 0.0000 (  6619 PWs)   bands (ev):

   -19.5186 -16.1549 -13.8734 -13.8734 -13.8717 -13.6810 -13.5853  -8.4926
    -7.3216  -4.6383  -4.6383  -4.4538   0.8728   1.0625   2.6036   2.6036
     4.3102   4.3102   6.4563   6.8609   7.1194   7.1194  10.9428  11.0018
    11.8169  12.7542

          k = 0.0000 0.0000 0.2000 (  6583 PWs)   bands (ev):

   -19.5138 -16.1580 -13.8750 -13.8733 -13.8484 -13.6825 -13.5731  -8.4251
    -7.4817  -4.6313  -4.6242  -4.4406   0.1609   1.0636   2.5510   2.7221
     4.3667   5.3062   6.4310   6.7827   7.0462   7.0817  11.1630  11.5363
    12.2684  12.7927

          k = 0.0000 0.0000 0.4000 (  6564 PWs)   bands (ev):

   -19.5058 -16.1631 -13.8775 -13.8732 -13.8152 -13.6851 -13.5474  -8.2082
    -7.8500  -4.6231  -4.6010  -4.4191  -0.5295   1.0646   2.4657   2.6899
     4.4662   6.1400   6.3341   6.7316   6.9233   8.0300  11.2699  12.4076
    12.8418  12.9740

          k = 0.0000 0.2000 0.2000 (  6615 PWs)   bands (ev):

   -19.5104 -16.0474 -13.8768 -13.8753 -13.8492 -13.7145 -13.6825  -8.4907
    -7.4755  -4.6427  -4.6140  -4.4248  -0.6598   2.3398   2.6584   2.7877
     4.2256   5.2236   6.2743   6.6467   6.9468   7.1032  11.4626  11.8076
    12.6438  12.8351

          k = 0.0000 0.2000 0.4000 (  6582 PWs)   bands (ev):

   -19.5028 -16.0525 -13.8791 -13.8751 -13.8221 -13.6849 -13.6847  -8.2398
    -7.8516  -4.6611  -4.5932  -4.4315  -1.1956   2.2231   2.5797   2.7039
     4.3453   6.1390   6.4212   6.6201   6.7994   8.1019  11.5835  12.4594
    12.8249  12.8569

          k = 0.0000 0.4000 0.4000 (  6586 PWs)   bands (ev):

   -19.4978 -15.8381 -13.9780 -13.8817 -13.8781 -13.7984 -13.6847  -8.2894
    -7.8539  -4.7187  -4.5805  -4.4543  -1.7373   2.7236   2.8084   3.7451
     4.1042   6.1102   6.4573   6.5068   6.6143   8.3057  11.3712  12.2682
    12.7471  12.8884

          k = 0.2000 0.2000 0.2000 (  6601 PWs)   bands (ev):

   -19.5062 -16.0490 -13.8768 -13.8767 -13.8221 -13.7065 -13.6840  -8.4229
    -7.5980  -4.6481  -4.6318  -4.4241  -1.1159   2.1616   2.7307   2.8179
     4.8696   5.5586   6.3629   6.6148   6.9122   7.2250  11.7531  11.8906
    12.4972  12.7275

          k = 0.2000 0.2000 0.4000 (  6566 PWs)   bands (ev):

   -19.4994 -16.0516 -13.8791 -13.8767 -13.7880 -13.6863 -13.6823  -8.2158
    -7.8986  -4.6729  -4.6344  -4.4337  -1.6786   2.0893   2.7323   2.8022
     5.2611   5.9913   6.4082   6.5799   7.1647   8.1838  11.7344  11.7470
    12.7798  12.9220

          k = 0.2000 0.4000 0.4000 (  6561 PWs)   bands (ev):

   -19.4946 -15.8370 -13.9648 -13.8820 -13.8797 -13.7774 -13.6863  -8.2444
    -7.8852  -4.7298  -4.6463  -4.4835  -2.1948   2.7738   2.8802   3.5136
     5.1908   6.1621   6.3593   6.5839   7.0647   8.3846  10.6389  11.8809
    12.3962  12.8992

          k = 0.4000 0.4000 0.4000 (  6605 PWs)   bands (ev):

   -19.4894 -15.8354 -13.9488 -13.8826 -13.8824 -13.7370 -13.6890  -8.1249
    -7.9831  -4.7505  -4.7414  -4.5355  -2.7963   2.8819   2.9384   3.4525
     6.1289   6.5250   6.6065   6.7308   7.5473   9.0199   9.8462  11.0785
    11.3653  13.9476

          k = 0.0000 0.2000 0.0000 (  6583 PWs)   bands (ev):

   -19.5150 -16.0442 -13.8753 -13.8753 -13.8715 -13.7264 -13.6809  -8.5729
    -7.3184  -4.6267  -4.6267  -4.4263  -0.2206   2.6721   2.7068   2.7068
     4.1591   4.1591   6.1617   6.6602   7.0322   7.0322  11.2064  11.4352
    12.5172  12.8208

          k = 0.0000 0.4000 0.0000 (  6564 PWs)   bands (ev):

   -19.5092 -15.8293 -13.9918 -13.8784 -13.8784 -13.8712 -13.6808  -8.6954
    -7.3132  -4.6077  -4.6077  -4.3876  -0.7860   2.9320   2.9320   3.8575
     3.8575   4.3907   5.5578   6.3856   6.9064   6.9064  11.3392  12.1415
    12.9381  13.2891

          k = 0.2000 0.0000 0.2000 (  6615 PWs)   bands (ev):

   -19.5094 -16.1597 -13.8750 -13.8749 -13.8223 -13.6840 -13.5629  -8.3720
    -7.6091  -4.6395  -4.6157  -4.4292  -0.4602   1.0720   2.6638   2.7506
     4.9822   5.6124   6.4303   6.6792   6.8695   7.2602  11.6973  11.6998
    12.5511  12.7120

          k = 0.2000 0.4000 0.0000 (  6582 PWs)   bands (ev):

   -19.5049 -15.8326 -13.9849 -13.8797 -13.8783 -13.8454 -13.6824  -8.5917
    -7.4653  -4.6518  -4.5973  -4.4128  -1.2152   2.8571   2.8849   3.7579
     3.9449   5.2988   5.8577   6.4638   6.8018   7.1379  11.4266  12.3155
    12.9166  13.0885

          k = 0.4000 0.0000 0.2000 (  6582 PWs)   bands (ev):

   -19.5024 -16.1623 -13.8774 -13.8748 -13.7842 -13.6863 -13.5405  -8.1979
    -7.9066  -4.6382  -4.6183  -4.4105  -1.1266   1.0854   2.6737   2.7652
     5.3255   5.9081   6.3561   6.6035   7.1999   8.1257  11.7046  12.3792
    12.6988  12.9367

          k = 0.4000 0.0000 0.4000 (  6586 PWs)   bands (ev):

   -19.4968 -16.1610 -13.8772 -13.8772 -13.7371 -13.6883 -13.5245  -8.1475
    -8.0354  -4.6584  -4.6493  -4.3963  -1.8111   1.1193   2.8214   2.8688
     5.6280   6.3859   6.4187   6.5993   7.5436   8.8731  11.9859  12.1472
    12.5712  12.8499

          k = 0.2000 0.4000 0.2000 (  6566 PWs)   bands (ev):

   -19.5009 -15.8343 -13.9752 -13.8800 -13.8794 -13.8219 -13.6839  -8.5021
    -7.5799  -4.6623  -4.6376  -4.4391  -1.6491   2.7833   2.9385   3.5483
     4.6879   5.6309   6.0828   6.5345   7.0321   7.1250  11.1309  12.4515
    12.8726  13.0663

          k = 0.4000 0.2000 0.4000 (  6561 PWs)   bands (ev):

   -19.4940 -16.0502 -13.8792 -13.8792 -13.7370 -13.6886 -13.6728  -8.1390
    -8.0157  -4.6933  -4.6867  -4.4481  -2.2914   2.0489   2.8474   2.8952
     5.8100   6.4621   6.4867   6.6382   7.5528   8.8940  11.0904  11.6438
    11.9300  13.2844

     the Fermi energy is     9.4404 ev

!    total energy              =   -1485.54858464 Ry
     total all-electron energy =    -59834.206198 Ry
     estimated scf accuracy    <       0.00000002 Ry
     smearing contrib. (-TS)   =      -0.00016191 Ry
     internal energy E=F+TS    =   -1485.54842273 Ry

     The total energy is F=E-TS. E is the sum of the following terms:
     one-electron contribution =    -113.38397616 Ry
     hartree contribution      =      87.15571663 Ry
     xc contribution           =     -77.29952109 Ry
     ewald contribution        =    -220.13087368 Ry
     one-center paw contrib.   =   -1161.88976844 Ry

     convergence has been achieved in  12 iterations

     Forces acting on atoms (cartesian axes, Ry/au):

     atom    1 type  1   force =     0.00000000    0.00000000    0.00000000
     atom    2 type  2   force =     0.00000000    0.00000000    0.00000000
     atom    3 type  4   force =     0.00000000    0.00000000    0.00000000
     atom    4 type  4   force =     0.00000000    0.00000000    0.00000000
     atom    5 type  3   force =     0.00000000    0.00000000    0.00000000

     Total force =     0.000000     Total SCF correction =     0.000000


     Computing stress (Cartesian axis) and pressure

          total   stress  (Ry/bohr**3)                   (kbar)     P=       -9.54
  -0.00005823   0.00000000   0.00000000           -8.57        0.00        0.00
   0.00000000  -0.00007801   0.00000000            0.00      -11.48        0.00
   0.00000000   0.00000000  -0.00005823            0.00        0.00       -8.57


     BFGS Geometry Optimization
     Energy error            =      0.0E+00 Ry
     Gradient error          =      0.0E+00 Ry/Bohr

     bfgs converged in   1 scf cycles and   0 bfgs steps
     (criteria: energy <  1.0E-04 Ry, force <  1.0E-03 Ry/Bohr)

     End of BFGS Geometry Optimization

     Final energy             =   -1485.5485846438 Ry
Begin final coordinates

ATOMIC_POSITIONS (angstrom)
Ba            2.3100000000        2.3100000000        2.3100000000
Bi            0.0000000000        0.0000000000        0.0000000000
O             0.0000000000        0.0000000000        2.3100000000
O             2.3100000000        0.0000000000        0.0000000000
F             0.0000000000        2.3100000000        0.0000000000
End final coordinates



     init_run     :      6.49s CPU      7.14s WALL (       1 calls)
     electrons    :     94.35s CPU    102.79s WALL (       1 calls)
     forces       :      1.92s CPU      2.19s WALL (       1 calls)
     stress       :     10.38s CPU     11.44s WALL (       1 calls)

     Called by init_run:
     wfcinit      :      1.64s CPU      1.73s WALL (       1 calls)
     potinit      :      1.33s CPU      1.47s WALL (       1 calls)
     hinit0       :      2.82s CPU      2.94s WALL (       1 calls)

     Called by electrons:
     c_bands      :     61.12s CPU     63.00s WALL (      12 calls)
     sum_band     :     16.99s CPU     20.22s WALL (      12 calls)
     v_of_rho     :      2.26s CPU      2.37s WALL (      13 calls)
     newd         :      7.96s CPU     11.31s WALL (      13 calls)
     PAW_pot      :      6.93s CPU      7.13s WALL (      13 calls)
     mix_rho      :      0.29s CPU      0.30s WALL (      12 calls)

     Called by c_bands:
     init_us_2    :      1.57s CPU      1.61s WALL (     486 calls)
     init_us_2:cp :      1.56s CPU      1.61s WALL (     486 calls)
     cegterg      :     57.96s CPU     59.75s WALL (     216 calls)

     Called by *egterg:
     cdiaghg      :      1.85s CPU      1.90s WALL (    1411 calls)
     h_psi        :     44.32s CPU     45.76s WALL (    1429 calls)
     s_psi        :      2.52s CPU      2.61s WALL (    1429 calls)
     g_psi        :      0.29s CPU      0.29s WALL (    1195 calls)

     Called by h_psi:
     h_psi:calbec :      2.92s CPU      3.02s WALL (    1429 calls)
     vloc_psi     :     38.30s CPU     39.55s WALL (    1429 calls)
     add_vuspsi   :      2.83s CPU      2.91s WALL (    1429 calls)

     General routines
     calbec       :      4.08s CPU      4.22s WALL (    1735 calls)
     fft          :      2.18s CPU      2.27s WALL (     192 calls)
     ffts         :      0.33s CPU      0.34s WALL (      25 calls)
     fftw         :     39.25s CPU     40.48s WALL (   38162 calls)
     interpolate  :      0.42s CPU      0.44s WALL (      13 calls)

     Parallel routines

     PWSCF        :   1m54.21s CPU   2m 4.71s WALL


   This run was terminated on:  23: 5:30   6May2024            

=------------------------------------------------------------------------------=
   JOB DONE.
=------------------------------------------------------------------------------=
