
     Program PWSCF v.7.1 starts on  6May2024 at  6:21:25 

     This program is part of the open-source Quantum ESPRESSO suite
     for quantum simulation of materials; please cite
         "P. Giannozzi et al., J. Phys.:Condens. Matter 21 395502 (2009);
         "P. Giannozzi et al., J. Phys.:Condens. Matter 29 465901 (2017);
         "P. Giannozzi et al., J. Chem. Phys. 152 154105 (2020);
          URL http://www.quantum-espresso.org", 
     in publications or presentations arising from this work. More details at
     http://www.quantum-espresso.org/quote

     Parallel version (MPI), running on     2 processors

     MPI processes distributed on     1 nodes
     13396 MiB available memory on the printing compute node when the environment starts

     Waiting for input...
     Reading input from standard input
Warning: card &CELL ignored
Warning: card / ignored

     Current dimensions of program PWSCF are:
     Max number of different atomic species (ntypx) = 10
     Max number of k-points (npk) =  40000
     Max angular momentum in pseudopotentials (lmaxx) =  4
     file Ba.pbe-spn-kjpaw_psl.1.0.0.UPF: wavefunction(s)  5S 6S renormalized
     Message from routine setup:
     using ibrav=0 with symmetry is DISCOURAGED, use correct ibrav instead

     R & G space division:  proc/nbgrp/npool/nimage =       2
     Subspace diagonalization in iterative solution of the eigenvalue problem:
     a serial algorithm will be used


     Parallelization info
     --------------------
     sticks:   dense  smooth     PW     G-vecs:    dense   smooth      PW
     Min        1430     711    205                48445    17014    2616
     Max        1431     712    206                48446    17015    2617
     Sum        2861    1423    411                96891    34029    5233

     Using Slab Decomposition



     bravais-lattice index     =            0
     lattice parameter (alat)  =       8.2482  a.u.
     unit-cell volume          =     431.9746 (a.u.)^3
     number of atoms/cell      =            1
     number of atomic types    =            1
     number of electrons       =        10.00
     number of Kohn-Sham states=            9
     kinetic-energy cutoff     =      70.0000  Ry
     charge density cutoff     =     560.0000  Ry
     scf convergence threshold =      1.0E-07
     mixing beta               =       0.7000
     number of iterations used =            8  plain     mixing
     energy convergence thresh.=      1.0E-04
     force convergence thresh. =      1.0E-03
     Exchange-correlation= SLA  PW   PBX  PBC
                           (   1   4   3   4   0   0   0)
     nstep                     =           50


     celldm(1)=   8.248216  celldm(2)=   0.000000  celldm(3)=   0.000000
     celldm(4)=   0.000000  celldm(5)=   0.000000  celldm(6)=   0.000000

     crystal axes: (cart. coord. in units of alat)
               a(1) = (  -0.577350   0.577350   0.577350 )  
               a(2) = (   0.577350  -0.577350   0.577350 )  
               a(3) = (   0.577350   0.577350  -0.577350 )  

     reciprocal axes: (cart. coord. in units 2 pi/alat)
               b(1) = (  0.000000  0.866025  0.866025 )  
               b(2) = (  0.866025  0.000000  0.866025 )  
               b(3) = (  0.866025  0.866025  0.000000 )  


     PseudoPot. # 1 for Ba read from file:
     /home/bond/Software/qe-7.1/pseudo/Ba.pbe-spn-kjpaw_psl.1.0.0.UPF
     MD5 check sum: 7cfe25f1fe7574a4710541d5a11d6531
     Pseudo is Projector augmented-wave + core cor, Zval = 10.0
     Generated using &quot;atomic&quot; code by A. Dal Corso  v.6.2.2
     Shape of augmentation charge: PSQ
     Using radial grid of 1251 points,  7 beta functions with: 
                l(1) =   0
                l(2) =   0
                l(3) =   0
                l(4) =   1
                l(5) =   1
                l(6) =   2
                l(7) =   2
     Q(r) pseudized with 0 coefficients 


     atomic species   valence    mass     pseudopotential
        Ba            10.00   137.32700     Ba( 1.00)

     48 Sym. Ops., with inversion, found



   Cartesian axes

     site n.     atom                  positions (alat units)
         1           Ba  tau(   1) = (   0.0000000   0.0000000   0.0000000  )

     number of k points=    10  Methfessel-Paxton smearing, width (Ry)=  0.0200
                       cart. coord. in units 2pi/alat
        k(    1) = (   0.0000000   0.0000000   0.0000000), wk =   0.0160000
        k(    2) = (   0.1732051   0.1732051   0.0000000), wk =   0.1920000
        k(    3) = (   0.3464102   0.3464102   0.0000000), wk =   0.1920000
        k(    4) = (   0.3464102   0.1732051   0.1732051), wk =   0.3840000
        k(    5) = (   0.5196152   0.3464102   0.1732051), wk =   0.3840000
        k(    6) = (   0.3464102   0.3464102   0.3464102), wk =   0.1280000
        k(    7) = (   0.0000000   0.0000000   0.3464102), wk =   0.0960000
        k(    8) = (   0.0000000  -0.1732051   0.5196152), wk =   0.3840000
        k(    9) = (  -0.6928203  -0.1732051  -0.1732051), wk =   0.1280000
        k(   10) = (   0.0000000   0.0000000   0.6928203), wk =   0.0960000

     Dense  grid:    96891 G-vectors     FFT dimensions: (  64,  64,  64)

     Smooth grid:    34029 G-vectors     FFT dimensions: (  45,  45,  45)

     Estimated max dynamical RAM per process >     197.91 MB

     Estimated total dynamical RAM >     395.82 MB

     Initial potential from superposition of free atoms

     starting charge       9.9830, renormalised to      10.0000
     Starting wfcs are    5 randomized atomic wfcs +    4 random wfcs
     Checking if some PAW data can be deallocated... 

     total cpu time spent up to now is        2.4 secs

     Self-consistent Calculation

     iteration #  1     ecut=    70.00 Ry     beta= 0.70
     Davidson diagonalization with overlap
     ethr =  1.00E-02,  avg # of iterations =  8.4

     Threshold (ethr) on eigenvalues was too large:
     Diagonalizing with lowered threshold

     Davidson diagonalization with overlap
     ethr =  8.00E-06,  avg # of iterations =  7.3

     total cpu time spent up to now is        6.5 secs

     total energy              =    -436.18143208 Ry
     estimated scf accuracy    <       0.00080353 Ry

     iteration #  2     ecut=    70.00 Ry     beta= 0.70
     Davidson diagonalization with overlap
     ethr =  8.04E-06,  avg # of iterations =  1.1

     total cpu time spent up to now is        8.2 secs

     total energy              =    -436.18153590 Ry
     estimated scf accuracy    <       0.00009264 Ry

     iteration #  3     ecut=    70.00 Ry     beta= 0.70
     Davidson diagonalization with overlap
     ethr =  9.26E-07,  avg # of iterations =  2.8

     total cpu time spent up to now is        9.9 secs

     total energy              =    -436.18154776 Ry
     estimated scf accuracy    <       0.00000300 Ry

     iteration #  4     ecut=    70.00 Ry     beta= 0.70
     Davidson diagonalization with overlap
     ethr =  3.00E-08,  avg # of iterations =  3.8

     total cpu time spent up to now is       11.7 secs

     total energy              =    -436.18154893 Ry
     estimated scf accuracy    <       0.00000083 Ry

     iteration #  5     ecut=    70.00 Ry     beta= 0.70
     Davidson diagonalization with overlap
     ethr =  8.32E-09,  avg # of iterations =  2.2

     total cpu time spent up to now is       13.5 secs

     total energy              =    -436.18154906 Ry
     estimated scf accuracy    <       0.00000016 Ry

     iteration #  6     ecut=    70.00 Ry     beta= 0.70
     Davidson diagonalization with overlap
     ethr =  1.61E-09,  avg # of iterations =  1.5

     total cpu time spent up to now is       15.2 secs

     End of self-consistent calculation

          k = 0.0000 0.0000 0.0000 (  4213 PWs)   bands (ev):

   -23.1810  -8.1353  -8.1353  -8.1353   2.9981   7.5515   7.5515   7.5515
     8.9296

          k = 0.1732 0.1732 0.0000 (  4248 PWs)   bands (ev):

   -23.1672  -8.2931  -8.1847  -8.1362   3.6744   7.0719   7.0941   8.2760
     8.6083

          k = 0.3464 0.3464 0.0000 (  4274 PWs)   bands (ev):

   -23.1446  -8.5320  -8.2627  -8.1378   4.7482   6.5121   6.7390   8.9277
     9.2994

          k = 0.3464 0.1732 0.1732 (  4263 PWs)   bands (ev):

   -23.1490  -8.4524  -8.2543  -8.1701   4.7149   6.4214   6.7001   8.5385
     9.3848

          k = 0.5196 0.3464 0.1732 (  4278 PWs)   bands (ev):

   -23.1377  -8.5182  -8.3375  -8.1797   5.3687   6.3672   6.5401   8.7705
     9.4809

          k = 0.3464 0.3464 0.3464 (  4246 PWs)   bands (ev):

   -23.1399  -8.4631  -8.2822  -8.2822   5.8873   6.2107   6.2107   9.4551
    10.2033

          k = 0.0000 0.0000 0.3464 (  4285 PWs)   bands (ev):

   -23.1545  -8.3159  -8.2370  -8.2370   4.2806   7.0086   7.4393   7.4393
     8.2577

          k = 0.0000-0.1732 0.5196 (  4286 PWs)   bands (ev):

   -23.1340  -8.4931  -8.3194  -8.2478   5.2894   6.1394   7.1994   7.8101
     9.4591

          k =-0.6928-0.1732-0.1732 (  4280 PWs)   bands (ev):

   -23.1247  -8.4509  -8.4509  -8.2701   5.7857   5.7857   6.7518   9.0570
     9.0570

          k = 0.0000 0.0000 0.6928 (  4288 PWs)   bands (ev):

   -23.1167  -8.4373  -8.4084  -8.4084   5.4045   5.4222   8.7427   8.7427
     9.1906

     the Fermi energy is     5.7934 ev

!    total energy              =    -436.18154906 Ry
     total all-electron energy =    -16271.274665 Ry
     estimated scf accuracy    <          9.3E-09 Ry
     smearing contrib. (-TS)   =       0.00073221 Ry
     internal energy E=F+TS    =    -436.18228127 Ry

     The total energy is F=E-TS. E is the sum of the following terms:
     one-electron contribution =     -11.63511823 Ry
     hartree contribution      =       8.76564539 Ry
     xc contribution           =     -20.15380566 Ry
     ewald contribution        =     -38.21030569 Ry
     one-center paw contrib.   =    -374.94869709 Ry

     convergence has been achieved in   6 iterations

     Forces acting on atoms (cartesian axes, Ry/au):

     atom    1 type  1   force =     0.00000000    0.00000000    0.00000000

     Total force =     0.000000     Total SCF correction =     0.000000


     Computing stress (Cartesian axis) and pressure

          total   stress  (Ry/bohr**3)                   (kbar)     P=       -2.06
  -0.00001402   0.00000000  -0.00000000           -2.06        0.00       -0.00
   0.00000000  -0.00001402   0.00000000            0.00       -2.06        0.00
  -0.00000000   0.00000000  -0.00001402           -0.00        0.00       -2.06


     BFGS Geometry Optimization
     Energy error            =      0.0E+00 Ry
     Gradient error          =      0.0E+00 Ry/Bohr

     bfgs converged in   1 scf cycles and   0 bfgs steps
     (criteria: energy <  1.0E-04 Ry, force <  1.0E-03 Ry/Bohr)

     End of BFGS Geometry Optimization

     Final energy             =    -436.1815490610 Ry
Begin final coordinates

ATOMIC_POSITIONS (angstrom)
Ba            0.0000000000        0.0000000000        0.0000000000
End final coordinates



     init_run     :      1.67s CPU      1.92s WALL (       1 calls)
     electrons    :     11.39s CPU     12.81s WALL (       1 calls)
     forces       :      0.54s CPU      0.66s WALL (       1 calls)
     stress       :      2.68s CPU      2.86s WALL (       1 calls)

     Called by init_run:
     wfcinit      :      0.27s CPU      0.32s WALL (       1 calls)
     potinit      :      0.39s CPU      0.42s WALL (       1 calls)
     hinit0       :      0.74s CPU      0.80s WALL (       1 calls)

     Called by electrons:
     c_bands      :      5.83s CPU      6.01s WALL (       7 calls)
     sum_band     :      2.62s CPU      3.25s WALL (       7 calls)
     v_of_rho     :      0.73s CPU      0.82s WALL (       7 calls)
     newd         :      1.37s CPU      1.92s WALL (       7 calls)
     PAW_pot      :      1.15s CPU      1.19s WALL (       7 calls)
     mix_rho      :      0.07s CPU      0.08s WALL (       7 calls)

     Called by c_bands:
     init_us_2    :      0.18s CPU      0.20s WALL (     170 calls)
     init_us_2:cp :      0.18s CPU      0.20s WALL (     170 calls)
     cegterg      :      5.54s CPU      5.70s WALL (      70 calls)

     Called by *egterg:
     cdiaghg      :      0.07s CPU      0.08s WALL (     331 calls)
     h_psi        :      5.10s CPU      5.29s WALL (     351 calls)
     s_psi        :      0.09s CPU      0.09s WALL (     351 calls)
     g_psi        :      0.02s CPU      0.02s WALL (     271 calls)

     Called by h_psi:
     h_psi:calbec :      0.13s CPU      0.14s WALL (     351 calls)
     vloc_psi     :      4.84s CPU      5.02s WALL (     351 calls)
     add_vuspsi   :      0.10s CPU      0.11s WALL (     351 calls)

     General routines
     calbec       :      0.20s CPU      0.21s WALL (     471 calls)
     fft          :      0.75s CPU      0.80s WALL (     115 calls)
     ffts         :      0.12s CPU      0.13s WALL (      14 calls)
     fftw         :      5.09s CPU      5.27s WALL (    4524 calls)
     interpolate  :      0.14s CPU      0.15s WALL (       7 calls)

     Parallel routines

     PWSCF        :     16.71s CPU     18.70s WALL


   This run was terminated on:   6:21:43   6May2024            

=------------------------------------------------------------------------------=
   JOB DONE.
=------------------------------------------------------------------------------=
