
     Program PWSCF v.7.1 starts on  6May2024 at  6:13:30 

     This program is part of the open-source Quantum ESPRESSO suite
     for quantum simulation of materials; please cite
         "P. Giannozzi et al., J. Phys.:Condens. Matter 21 395502 (2009);
         "P. Giannozzi et al., J. Phys.:Condens. Matter 29 465901 (2017);
         "P. Giannozzi et al., J. Chem. Phys. 152 154105 (2020);
          URL http://www.quantum-espresso.org", 
     in publications or presentations arising from this work. More details at
     http://www.quantum-espresso.org/quote

     Parallel version (MPI), running on     2 processors

     MPI processes distributed on     1 nodes
     13522 MiB available memory on the printing compute node when the environment starts

     Waiting for input...
     Reading input from standard input
Warning: card &CELL ignored
Warning: card / ignored

     Current dimensions of program PWSCF are:
     Max number of different atomic species (ntypx) = 10
     Max number of k-points (npk) =  40000
     Max angular momentum in pseudopotentials (lmaxx) =  4
     file Bi.pbe-dn-kjpaw_psl.1.0.0.UPF: wavefunction(s)  6P 5D renormalized
     Message from routine setup:
     using ibrav=0 with symmetry is DISCOURAGED, use correct ibrav instead

     R & G space division:  proc/nbgrp/npool/nimage =       2
     Subspace diagonalization in iterative solution of the eigenvalue problem:
     a serial algorithm will be used


     Parallelization info
     --------------------
     sticks:   dense  smooth     PW     G-vecs:    dense   smooth      PW
     Min         782     388    111                22980     8138    1276
     Max         783     389    114                22981     8141    1277
     Sum        1565     777    225                45961    16279    2553

     Using Slab Decomposition



     bravais-lattice index     =            0
     lattice parameter (alat)  =       5.8959  a.u.
     unit-cell volume          =     204.9559 (a.u.)^3
     number of atoms/cell      =            1
     number of atomic types    =            1
     number of electrons       =        15.00
     number of Kohn-Sham states=           12
     kinetic-energy cutoff     =      70.0000  Ry
     charge density cutoff     =     560.0000  Ry
     scf convergence threshold =      1.0E-07
     mixing beta               =       0.7000
     number of iterations used =            8  plain     mixing
     energy convergence thresh.=      1.0E-04
     force convergence thresh. =      1.0E-03
     Exchange-correlation= SLA  PW   PBX  PBC
                           (   1   4   3   4   0   0   0)
     nstep                     =           50


     celldm(1)=   5.895946  celldm(2)=   0.000000  celldm(3)=   0.000000
     celldm(4)=   0.000000  celldm(5)=   0.000000  celldm(6)=   0.000000

     crystal axes: (cart. coord. in units of alat)
               a(1) = (   1.000000   0.000000   0.000000 )  
               a(2) = (   0.000000   1.000000   0.000000 )  
               a(3) = (   0.000000   0.000000   1.000000 )  

     reciprocal axes: (cart. coord. in units 2 pi/alat)
               b(1) = (  1.000000  0.000000  0.000000 )  
               b(2) = (  0.000000  1.000000  0.000000 )  
               b(3) = (  0.000000  0.000000  1.000000 )  


     PseudoPot. # 1 for Bi read from file:
     /home/bond/Software/qe-7.1/pseudo/Bi.pbe-dn-kjpaw_psl.1.0.0.UPF
     MD5 check sum: 266ded784ae3bc462508ed03f0f37963
     Pseudo is Projector augmented-wave + core cor, Zval = 15.0
     Generated using &quot;atomic&quot; code by A. Dal Corso  v.6.2.2
     Shape of augmentation charge: PSQ
     Using radial grid of 1283 points,  6 beta functions with: 
                l(1) =   0
                l(2) =   0
                l(3) =   1
                l(4) =   1
                l(5) =   2
                l(6) =   2
     Q(r) pseudized with 0 coefficients 


     atomic species   valence    mass     pseudopotential
        Bi            15.00   208.98040     Bi( 1.00)

     48 Sym. Ops., with inversion, found



   Cartesian axes

     site n.     atom                  positions (alat units)
         1           Bi  tau(   1) = (   0.5000000   0.5000000   0.5000000  )

     number of k points=    10  Methfessel-Paxton smearing, width (Ry)=  0.0200
                       cart. coord. in units 2pi/alat
        k(    1) = (   0.0000000   0.0000000   0.0000000), wk =   0.0160000
        k(    2) = (   0.0000000   0.0000000   0.2000000), wk =   0.0960000
        k(    3) = (   0.0000000   0.0000000   0.4000000), wk =   0.0960000
        k(    4) = (   0.0000000   0.2000000   0.2000000), wk =   0.1920000
        k(    5) = (   0.0000000   0.2000000   0.4000000), wk =   0.3840000
        k(    6) = (   0.0000000   0.4000000   0.4000000), wk =   0.1920000
        k(    7) = (   0.2000000   0.2000000   0.2000000), wk =   0.1280000
        k(    8) = (   0.2000000   0.2000000   0.4000000), wk =   0.3840000
        k(    9) = (   0.2000000   0.4000000   0.4000000), wk =   0.3840000
        k(   10) = (   0.4000000   0.4000000   0.4000000), wk =   0.1280000

     Dense  grid:    45961 G-vectors     FFT dimensions: (  45,  45,  45)

     Smooth grid:    16279 G-vectors     FFT dimensions: (  32,  32,  32)

     Estimated max dynamical RAM per process >      87.34 MB

     Estimated total dynamical RAM >     174.68 MB

     Initial potential from superposition of free atoms

     starting charge      14.9992, renormalised to      15.0000
     Starting wfcs are    9 randomized atomic wfcs +    3 random wfcs
     Checking if some PAW data can be deallocated... 

     total cpu time spent up to now is        1.7 secs

     Self-consistent Calculation

     iteration #  1     ecut=    70.00 Ry     beta= 0.70
     Davidson diagonalization with overlap
     ethr =  1.00E-02,  avg # of iterations =  5.6

     Threshold (ethr) on eigenvalues was too large:
     Diagonalizing with lowered threshold

     Davidson diagonalization with overlap
     ethr =  7.67E-06,  avg # of iterations =  6.8

     total cpu time spent up to now is        3.1 secs

     total energy              =    -906.35516794 Ry
     estimated scf accuracy    <       0.00138947 Ry

     iteration #  2     ecut=    70.00 Ry     beta= 0.70
     Davidson diagonalization with overlap
     ethr =  9.26E-06,  avg # of iterations =  1.0

     total cpu time spent up to now is        3.7 secs

     total energy              =    -906.35526120 Ry
     estimated scf accuracy    <       0.00013235 Ry

     iteration #  3     ecut=    70.00 Ry     beta= 0.70
     Davidson diagonalization with overlap
     ethr =  8.82E-07,  avg # of iterations =  2.0

     total cpu time spent up to now is        4.4 secs

     total energy              =    -906.35527282 Ry
     estimated scf accuracy    <       0.00000536 Ry

     iteration #  4     ecut=    70.00 Ry     beta= 0.70
     Davidson diagonalization with overlap
     ethr =  3.57E-08,  avg # of iterations =  2.1

     total cpu time spent up to now is        5.4 secs

     End of self-consistent calculation

          k = 0.0000 0.0000 0.0000 (  2007 PWs)   bands (ev):

   -11.1438 -11.1438 -10.6635 -10.6635 -10.6635  -1.9244  15.5791  15.5791
    15.5791  19.0729  20.3054  20.3054

          k = 0.0000 0.0000 0.2000 (  2008 PWs)   bands (ev):

   -11.1364 -11.0114 -10.7069 -10.7069 -10.6599  -1.3533  11.2595  16.2072
    16.2072  19.9591  20.7232  25.1909

          k = 0.0000 0.0000 0.4000 (  2040 PWs)   bands (ev):

   -11.1242 -10.7981 -10.7765 -10.7765 -10.6543   0.0471   7.0592  17.5500
    17.5500  21.4414  22.0136  24.3177

          k = 0.0000 0.2000 0.2000 (  2011 PWs)   bands (ev):

   -11.0691 -10.9350 -10.7554 -10.7040 -10.7019  -0.7861  11.8048  11.9101
    16.8458  20.7797  22.7160  25.6661

          k = 0.0000 0.2000 0.4000 (  2021 PWs)   bands (ev):

   -11.0382 -10.8329 -10.7717 -10.7332 -10.6965   0.6053   7.6395  13.2466
    18.2183  19.1621  22.2412  24.7075

          k = 0.0000 0.4000 0.4000 (  2043 PWs)   bands (ev):

   -10.9586 -10.9228 -10.7646 -10.7638 -10.5673   1.9959   8.8840   8.9855
    15.6850  19.6451  23.5698  25.1619

          k = 0.2000 0.2000 0.2000 (  2034 PWs)   bands (ev):

   -10.9290 -10.9290 -10.7543 -10.7490 -10.7490  -0.2218  12.3666  12.5018
    12.5018  22.7459  23.6076  23.6076

          k = 0.2000 0.2000 0.4000 (  2016 PWs)   bands (ev):

   -10.9186 -10.8299 -10.8246 -10.7443 -10.6998   1.1630   8.2191  13.8241
    13.8818  19.2905  20.2330  24.9059

          k = 0.2000 0.4000 0.4000 (  2043 PWs)   bands (ev):

   -10.9158 -10.8196 -10.8178 -10.8064 -10.5638   2.5524   9.4582   9.5656
    15.2491  16.2127  21.1609  21.5377

          k = 0.4000 0.4000 0.4000 (  2010 PWs)   bands (ev):

   -10.9060 -10.9033 -10.9033 -10.5582 -10.5582   3.9637  10.6833  10.6833
    10.9707  17.1033  18.2564  18.2564

     the Fermi energy is    12.3858 ev

!    total energy              =    -906.35527407 Ry
     total all-electron energy =    -43061.813270 Ry
     estimated scf accuracy    <       0.00000005 Ry
     smearing contrib. (-TS)   =      -0.00056156 Ry
     internal energy E=F+TS    =    -906.35471250 Ry

     The total energy is F=E-TS. E is the sum of the following terms:
     one-electron contribution =     -42.01218754 Ry
     hartree contribution      =      33.09440518 Ry
     xc contribution           =     -32.58106925 Ry
     ewald contribution        =    -108.27643029 Ry
     one-center paw contrib.   =    -756.57943061 Ry

     convergence has been achieved in   4 iterations

     Forces acting on atoms (cartesian axes, Ry/au):

     atom    1 type  1   force =     0.00000000    0.00000000    0.00000000

     Total force =     0.000000     Total SCF correction =     0.000000


     Computing stress (Cartesian axis) and pressure

          total   stress  (Ry/bohr**3)                   (kbar)     P=       91.94
   0.00062496   0.00000000   0.00000000           91.94        0.00        0.00
   0.00000000   0.00062496   0.00000000            0.00       91.94        0.00
   0.00000000   0.00000000   0.00062496            0.00        0.00       91.94


     BFGS Geometry Optimization
     Energy error            =      0.0E+00 Ry
     Gradient error          =      0.0E+00 Ry/Bohr

     bfgs converged in   1 scf cycles and   0 bfgs steps
     (criteria: energy <  1.0E-04 Ry, force <  1.0E-03 Ry/Bohr)

     End of BFGS Geometry Optimization

     Final energy             =    -906.3552740650 Ry
Begin final coordinates

ATOMIC_POSITIONS (angstrom)
Bi            1.5600000000        1.5600000000        1.5600000000
End final coordinates



     init_run     :      1.13s CPU      1.32s WALL (       1 calls)
     electrons    :      2.97s CPU      3.68s WALL (       1 calls)
     forces       :      0.20s CPU      0.23s WALL (       1 calls)
     stress       :      1.20s CPU      1.54s WALL (       1 calls)

     Called by init_run:
     wfcinit      :      0.08s CPU      0.10s WALL (       1 calls)
     potinit      :      0.35s CPU      0.40s WALL (       1 calls)
     hinit0       :      0.57s CPU      0.62s WALL (       1 calls)

     Called by electrons:
     c_bands      :      1.15s CPU      1.22s WALL (       5 calls)
     sum_band     :      0.66s CPU      0.87s WALL (       5 calls)
     v_of_rho     :      0.22s CPU      0.23s WALL (       5 calls)
     newd         :      0.40s CPU      0.57s WALL (       5 calls)
     PAW_pot      :      0.81s CPU      1.13s WALL (       5 calls)
     mix_rho      :      0.02s CPU      0.02s WALL (       5 calls)

     Called by c_bands:
     init_us_2    :      0.06s CPU      0.07s WALL (     130 calls)
     init_us_2:cp :      0.06s CPU      0.07s WALL (     130 calls)
     cegterg      :      1.05s CPU      1.12s WALL (      50 calls)

     Called by *egterg:
     cdiaghg      :      0.07s CPU      0.07s WALL (     215 calls)
     h_psi        :      0.80s CPU      0.86s WALL (     235 calls)
     s_psi        :      0.03s CPU      0.03s WALL (     235 calls)
     g_psi        :      0.01s CPU      0.01s WALL (     175 calls)

     Called by h_psi:
     h_psi:calbec :      0.04s CPU      0.04s WALL (     235 calls)
     vloc_psi     :      0.71s CPU      0.77s WALL (     235 calls)
     add_vuspsi   :      0.03s CPU      0.04s WALL (     235 calls)

     General routines
     calbec       :      0.11s CPU      0.20s WALL (     335 calls)
     fft          :      0.28s CPU      0.31s WALL (      89 calls)
     ffts         :      0.12s CPU      0.13s WALL (      10 calls)
     fftw         :      0.68s CPU      0.74s WALL (    4056 calls)
     interpolate  :      0.13s CPU      0.14s WALL (       5 calls)

     Parallel routines

     PWSCF        :      5.88s CPU      7.18s WALL


   This run was terminated on:   6:13:37   6May2024            

=------------------------------------------------------------------------------=
   JOB DONE.
=------------------------------------------------------------------------------=
