
     Program PWSCF v.7.1 starts on  6May2024 at  6:21:44 

     This program is part of the open-source Quantum ESPRESSO suite
     for quantum simulation of materials; please cite
         "P. Giannozzi et al., J. Phys.:Condens. Matter 21 395502 (2009);
         "P. Giannozzi et al., J. Phys.:Condens. Matter 29 465901 (2017);
         "P. Giannozzi et al., J. Chem. Phys. 152 154105 (2020);
          URL http://www.quantum-espresso.org", 
     in publications or presentations arising from this work. More details at
     http://www.quantum-espresso.org/quote

     Parallel version (MPI), running on     2 processors

     MPI processes distributed on     1 nodes
     13397 MiB available memory on the printing compute node when the environment starts

     Waiting for input...
     Reading input from standard input
Warning: card &CELL ignored
Warning: card / ignored

     Current dimensions of program PWSCF are:
     Max number of different atomic species (ntypx) = 10
     Max number of k-points (npk) =  40000
     Max angular momentum in pseudopotentials (lmaxx) =  4
     file Ba.pbe-spn-kjpaw_psl.1.0.0.UPF: wavefunction(s)  5S 6S renormalized
     Message from routine setup:
     using ibrav=0 with symmetry is DISCOURAGED, use correct ibrav instead

     R & G space division:  proc/nbgrp/npool/nimage =       2
     Subspace diagonalization in iterative solution of the eigenvalue problem:
     a serial algorithm will be used


     Parallelization info
     --------------------
     sticks:   dense  smooth     PW     G-vecs:    dense   smooth      PW
     Min        1432     711    205                48589    17110    2616
     Max        1433     712    206                48590    17111    2617
     Sum        2865    1423    411                97179    34221    5233

     Using Slab Decomposition



     bravais-lattice index     =            0
     lattice parameter (alat)  =       8.2646  a.u.
     unit-cell volume          =     434.5510 (a.u.)^3
     number of atoms/cell      =            1
     number of atomic types    =            1
     number of electrons       =        10.00
     number of Kohn-Sham states=            9
     kinetic-energy cutoff     =      70.0000  Ry
     charge density cutoff     =     560.0000  Ry
     scf convergence threshold =      1.0E-07
     mixing beta               =       0.7000
     number of iterations used =            8  plain     mixing
     energy convergence thresh.=      1.0E-04
     force convergence thresh. =      1.0E-03
     Exchange-correlation= SLA  PW   PBX  PBC
                           (   1   4   3   4   0   0   0)
     nstep                     =           50


     celldm(1)=   8.264582  celldm(2)=   0.000000  celldm(3)=   0.000000
     celldm(4)=   0.000000  celldm(5)=   0.000000  celldm(6)=   0.000000

     crystal axes: (cart. coord. in units of alat)
               a(1) = (  -0.577350   0.577350   0.577350 )  
               a(2) = (   0.577350  -0.577350   0.577350 )  
               a(3) = (   0.577350   0.577350  -0.577350 )  

     reciprocal axes: (cart. coord. in units 2 pi/alat)
               b(1) = (  0.000000  0.866025  0.866025 )  
               b(2) = (  0.866025  0.000000  0.866025 )  
               b(3) = (  0.866025  0.866025  0.000000 )  


     PseudoPot. # 1 for Ba read from file:
     /home/bond/Software/qe-7.1/pseudo/Ba.pbe-spn-kjpaw_psl.1.0.0.UPF
     MD5 check sum: 7cfe25f1fe7574a4710541d5a11d6531
     Pseudo is Projector augmented-wave + core cor, Zval = 10.0
     Generated using &quot;atomic&quot; code by A. Dal Corso  v.6.2.2
     Shape of augmentation charge: PSQ
     Using radial grid of 1251 points,  7 beta functions with: 
                l(1) =   0
                l(2) =   0
                l(3) =   0
                l(4) =   1
                l(5) =   1
                l(6) =   2
                l(7) =   2
     Q(r) pseudized with 0 coefficients 


     atomic species   valence    mass     pseudopotential
        Ba            10.00   137.32700     Ba( 1.00)

     48 Sym. Ops., with inversion, found



   Cartesian axes

     site n.     atom                  positions (alat units)
         1           Ba  tau(   1) = (   0.0000000   0.0000000   0.0000000  )

     number of k points=    10  Methfessel-Paxton smearing, width (Ry)=  0.0200
                       cart. coord. in units 2pi/alat
        k(    1) = (   0.0000000   0.0000000   0.0000000), wk =   0.0160000
        k(    2) = (   0.1732051   0.1732051   0.0000000), wk =   0.1920000
        k(    3) = (   0.3464102   0.3464102   0.0000000), wk =   0.1920000
        k(    4) = (   0.3464102   0.1732051   0.1732051), wk =   0.3840000
        k(    5) = (   0.5196152   0.3464102   0.1732051), wk =   0.3840000
        k(    6) = (   0.3464102   0.3464102   0.3464102), wk =   0.1280000
        k(    7) = (   0.0000000   0.0000000   0.3464102), wk =   0.0960000
        k(    8) = (   0.0000000  -0.1732051   0.5196152), wk =   0.3840000
        k(    9) = (  -0.6928203  -0.1732051  -0.1732051), wk =   0.1280000
        k(   10) = (   0.0000000   0.0000000   0.6928203), wk =   0.0960000

     Dense  grid:    97179 G-vectors     FFT dimensions: (  64,  64,  64)

     Smooth grid:    34221 G-vectors     FFT dimensions: (  45,  45,  45)

     Estimated max dynamical RAM per process >     198.47 MB

     Estimated total dynamical RAM >     396.95 MB

     Initial potential from superposition of free atoms

     starting charge       9.9830, renormalised to      10.0000
     Starting wfcs are    5 randomized atomic wfcs +    4 random wfcs
     Checking if some PAW data can be deallocated... 

     total cpu time spent up to now is        2.5 secs

     Self-consistent Calculation

     iteration #  1     ecut=    70.00 Ry     beta= 0.70
     Davidson diagonalization with overlap
     ethr =  1.00E-02,  avg # of iterations =  7.8

     Threshold (ethr) on eigenvalues was too large:
     Diagonalizing with lowered threshold

     Davidson diagonalization with overlap
     ethr =  7.89E-06,  avg # of iterations =  8.8

     total cpu time spent up to now is        7.0 secs

     total energy              =    -436.18139280 Ry
     estimated scf accuracy    <       0.00079508 Ry

     iteration #  2     ecut=    70.00 Ry     beta= 0.70
     Davidson diagonalization with overlap
     ethr =  7.95E-06,  avg # of iterations =  1.1

     total cpu time spent up to now is        8.7 secs

     total energy              =    -436.18149644 Ry
     estimated scf accuracy    <       0.00009219 Ry

     iteration #  3     ecut=    70.00 Ry     beta= 0.70
     Davidson diagonalization with overlap
     ethr =  9.22E-07,  avg # of iterations =  2.2

     total cpu time spent up to now is       10.6 secs

     total energy              =    -436.18150813 Ry
     estimated scf accuracy    <       0.00000294 Ry

     iteration #  4     ecut=    70.00 Ry     beta= 0.70
     Davidson diagonalization with overlap
     ethr =  2.94E-08,  avg # of iterations =  3.8

     total cpu time spent up to now is       12.4 secs

     total energy              =    -436.18150933 Ry
     estimated scf accuracy    <       0.00000083 Ry

     iteration #  5     ecut=    70.00 Ry     beta= 0.70
     Davidson diagonalization with overlap
     ethr =  8.27E-09,  avg # of iterations =  2.2

     total cpu time spent up to now is       14.2 secs

     total energy              =    -436.18150945 Ry
     estimated scf accuracy    <       0.00000017 Ry

     iteration #  6     ecut=    70.00 Ry     beta= 0.70
     Davidson diagonalization with overlap
     ethr =  1.70E-09,  avg # of iterations =  1.3

     total cpu time spent up to now is       15.8 secs

     End of self-consistent calculation

          k = 0.0000 0.0000 0.0000 (  4213 PWs)   bands (ev):

   -23.2353  -8.1927  -8.1927  -8.1927   2.9573   7.5007   7.5007   7.5007
     8.8712

          k = 0.1732 0.1732 0.0000 (  4276 PWs)   bands (ev):

   -23.2218  -8.3473  -8.2412  -8.1935   3.6295   7.0245   7.0460   8.2202
     8.5529

          k = 0.3464 0.3464 0.0000 (  4274 PWs)   bands (ev):

   -23.1999  -8.5817  -8.3177  -8.1951   4.7052   6.4682   6.6831   8.8670
     9.2378

          k = 0.3464 0.1732 0.1732 (  4290 PWs)   bands (ev):

   -23.2041  -8.5036  -8.3094  -8.2267   4.6664   6.3763   6.6530   8.4826
     9.3217

          k = 0.5196 0.3464 0.1732 (  4313 PWs)   bands (ev):

   -23.1931  -8.5682  -8.3910  -8.2362   5.3254   6.3221   6.4854   8.7116
     9.4165

          k = 0.3464 0.3464 0.3464 (  4285 PWs)   bands (ev):

   -23.1953  -8.5141  -8.3366  -8.3366   5.8353   6.1643   6.1643   9.3916
    10.1247

          k = 0.0000 0.0000 0.3464 (  4321 PWs)   bands (ev):

   -23.2095  -8.3696  -8.2925  -8.2925   4.2325   6.9637   7.3884   7.3884
     8.2029

          k = 0.0000-0.1732 0.5196 (  4306 PWs)   bands (ev):

   -23.1895  -8.5436  -8.3733  -8.3030   5.2435   6.0943   7.1501   7.7566
     9.3918

          k =-0.6928-0.1732-0.1732 (  4280 PWs)   bands (ev):

   -23.1804  -8.5023  -8.5023  -8.3250   5.7432   5.7432   6.7020   8.9942
     8.9942

          k = 0.0000 0.0000 0.6928 (  4316 PWs)   bands (ev):

   -23.1726  -8.4890  -8.4608  -8.4608   5.3648   5.3853   8.6810   8.6810
     9.1215

     the Fermi energy is     5.7479 ev

!    total energy              =    -436.18150946 Ry
     total all-electron energy =    -16271.274625 Ry
     estimated scf accuracy    <          7.7E-09 Ry
     smearing contrib. (-TS)   =       0.00072681 Ry
     internal energy E=F+TS    =    -436.18223626 Ry

     The total energy is F=E-TS. E is the sum of the following terms:
     one-electron contribution =     -11.74925162 Ry
     hartree contribution      =       8.80205044 Ry
     xc contribution           =     -20.15170865 Ry
     ewald contribution        =     -38.13464172 Ry
     one-center paw contrib.   =    -374.94868472 Ry

     convergence has been achieved in   6 iterations

     Forces acting on atoms (cartesian axes, Ry/au):

     atom    1 type  1   force =     0.00000000    0.00000000    0.00000000

     Total force =     0.000000     Total SCF correction =     0.000000


     Computing stress (Cartesian axis) and pressure

          total   stress  (Ry/bohr**3)                   (kbar)     P=       -2.51
  -0.00001708  -0.00000000  -0.00000000           -2.51       -0.00       -0.00
  -0.00000000  -0.00001708  -0.00000000           -0.00       -2.51       -0.00
  -0.00000000  -0.00000000  -0.00001708           -0.00       -0.00       -2.51


     BFGS Geometry Optimization
     Energy error            =      0.0E+00 Ry
     Gradient error          =      0.0E+00 Ry/Bohr

     bfgs converged in   1 scf cycles and   0 bfgs steps
     (criteria: energy <  1.0E-04 Ry, force <  1.0E-03 Ry/Bohr)

     End of BFGS Geometry Optimization

     Final energy             =    -436.1815094570 Ry
Begin final coordinates

ATOMIC_POSITIONS (angstrom)
Ba            0.0000000000        0.0000000000        0.0000000000
End final coordinates



     init_run     :      1.82s CPU      2.08s WALL (       1 calls)
     electrons    :     11.74s CPU     13.31s WALL (       1 calls)
     forces       :      0.43s CPU      0.54s WALL (       1 calls)
     stress       :      2.54s CPU      2.91s WALL (       1 calls)

     Called by init_run:
     wfcinit      :      0.29s CPU      0.34s WALL (       1 calls)
     potinit      :      0.43s CPU      0.46s WALL (       1 calls)
     hinit0       :      0.76s CPU      0.83s WALL (       1 calls)

     Called by electrons:
     c_bands      :      6.14s CPU      6.48s WALL (       7 calls)
     sum_band     :      2.71s CPU      3.43s WALL (       7 calls)
     v_of_rho     :      0.75s CPU      0.80s WALL (       7 calls)
     newd         :      1.39s CPU      1.91s WALL (       7 calls)
     PAW_pot      :      1.15s CPU      1.19s WALL (       7 calls)
     mix_rho      :      0.07s CPU      0.07s WALL (       7 calls)

     Called by c_bands:
     init_us_2    :      0.18s CPU      0.20s WALL (     170 calls)
     init_us_2:cp :      0.18s CPU      0.20s WALL (     170 calls)
     cegterg      :      5.85s CPU      6.17s WALL (      70 calls)

     Called by *egterg:
     cdiaghg      :      0.07s CPU      0.08s WALL (     332 calls)
     h_psi        :      5.43s CPU      5.75s WALL (     352 calls)
     s_psi        :      0.09s CPU      0.10s WALL (     352 calls)
     g_psi        :      0.02s CPU      0.02s WALL (     272 calls)

     Called by h_psi:
     h_psi:calbec :      0.13s CPU      0.14s WALL (     352 calls)
     vloc_psi     :      5.16s CPU      5.47s WALL (     352 calls)
     add_vuspsi   :      0.11s CPU      0.11s WALL (     352 calls)

     General routines
     calbec       :      0.19s CPU      0.21s WALL (     472 calls)
     fft          :      0.73s CPU      0.80s WALL (     115 calls)
     ffts         :      0.12s CPU      0.12s WALL (      14 calls)
     fftw         :      5.55s CPU      5.93s WALL (    4552 calls)
     interpolate  :      0.14s CPU      0.14s WALL (       7 calls)

     Parallel routines

     PWSCF        :     16.96s CPU     19.29s WALL


   This run was terminated on:   6:22: 3   6May2024            

=------------------------------------------------------------------------------=
   JOB DONE.
=------------------------------------------------------------------------------=
