
     Program PWSCF v.7.1 starts on  6May2024 at  6:14:54 

     This program is part of the open-source Quantum ESPRESSO suite
     for quantum simulation of materials; please cite
         "P. Giannozzi et al., J. Phys.:Condens. Matter 21 395502 (2009);
         "P. Giannozzi et al., J. Phys.:Condens. Matter 29 465901 (2017);
         "P. Giannozzi et al., J. Chem. Phys. 152 154105 (2020);
          URL http://www.quantum-espresso.org", 
     in publications or presentations arising from this work. More details at
     http://www.quantum-espresso.org/quote

     Parallel version (MPI), running on     2 processors

     MPI processes distributed on     1 nodes
     13528 MiB available memory on the printing compute node when the environment starts

     Waiting for input...
     Reading input from standard input
Warning: card &CELL ignored
Warning: card / ignored

     Current dimensions of program PWSCF are:
     Max number of different atomic species (ntypx) = 10
     Max number of k-points (npk) =  40000
     Max angular momentum in pseudopotentials (lmaxx) =  4
     file Bi.pbe-dn-kjpaw_psl.1.0.0.UPF: wavefunction(s)  6P 5D renormalized
     Message from routine setup:
     using ibrav=0 with symmetry is DISCOURAGED, use correct ibrav instead

     R & G space division:  proc/nbgrp/npool/nimage =       2
     Subspace diagonalization in iterative solution of the eigenvalue problem:
     a serial algorithm will be used


     Parallelization info
     --------------------
     sticks:   dense  smooth     PW     G-vecs:    dense   smooth      PW
     Min         824     414    120                25364     8970    1448
     Max         825     415    121                25369     8971    1449
     Sum        1649     829    241                50733    17941    2897

     Using Slab Decomposition



     bravais-lattice index     =            0
     lattice parameter (alat)  =       6.1038  a.u.
     unit-cell volume          =     227.4072 (a.u.)^3
     number of atoms/cell      =            1
     number of atomic types    =            1
     number of electrons       =        15.00
     number of Kohn-Sham states=           12
     kinetic-energy cutoff     =      70.0000  Ry
     charge density cutoff     =     560.0000  Ry
     scf convergence threshold =      1.0E-07
     mixing beta               =       0.7000
     number of iterations used =            8  plain     mixing
     energy convergence thresh.=      1.0E-04
     force convergence thresh. =      1.0E-03
     Exchange-correlation= SLA  PW   PBX  PBC
                           (   1   4   3   4   0   0   0)
     nstep                     =           50


     celldm(1)=   6.103815  celldm(2)=   0.000000  celldm(3)=   0.000000
     celldm(4)=   0.000000  celldm(5)=   0.000000  celldm(6)=   0.000000

     crystal axes: (cart. coord. in units of alat)
               a(1) = (   1.000000   0.000000   0.000000 )  
               a(2) = (   0.000000   1.000000   0.000000 )  
               a(3) = (   0.000000   0.000000   1.000000 )  

     reciprocal axes: (cart. coord. in units 2 pi/alat)
               b(1) = (  1.000000  0.000000  0.000000 )  
               b(2) = (  0.000000  1.000000  0.000000 )  
               b(3) = (  0.000000  0.000000  1.000000 )  


     PseudoPot. # 1 for Bi read from file:
     /home/bond/Software/qe-7.1/pseudo/Bi.pbe-dn-kjpaw_psl.1.0.0.UPF
     MD5 check sum: 266ded784ae3bc462508ed03f0f37963
     Pseudo is Projector augmented-wave + core cor, Zval = 15.0
     Generated using &quot;atomic&quot; code by A. Dal Corso  v.6.2.2
     Shape of augmentation charge: PSQ
     Using radial grid of 1283 points,  6 beta functions with: 
                l(1) =   0
                l(2) =   0
                l(3) =   1
                l(4) =   1
                l(5) =   2
                l(6) =   2
     Q(r) pseudized with 0 coefficients 


     atomic species   valence    mass     pseudopotential
        Bi            15.00   208.98040     Bi( 1.00)

     48 Sym. Ops., with inversion, found



   Cartesian axes

     site n.     atom                  positions (alat units)
         1           Bi  tau(   1) = (   0.5000000   0.5000000   0.5000000  )

     number of k points=    10  Methfessel-Paxton smearing, width (Ry)=  0.0200
                       cart. coord. in units 2pi/alat
        k(    1) = (   0.0000000   0.0000000   0.0000000), wk =   0.0160000
        k(    2) = (   0.0000000   0.0000000   0.2000000), wk =   0.0960000
        k(    3) = (   0.0000000   0.0000000   0.4000000), wk =   0.0960000
        k(    4) = (   0.0000000   0.2000000   0.2000000), wk =   0.1920000
        k(    5) = (   0.0000000   0.2000000   0.4000000), wk =   0.3840000
        k(    6) = (   0.0000000   0.4000000   0.4000000), wk =   0.1920000
        k(    7) = (   0.2000000   0.2000000   0.2000000), wk =   0.1280000
        k(    8) = (   0.2000000   0.2000000   0.4000000), wk =   0.3840000
        k(    9) = (   0.2000000   0.4000000   0.4000000), wk =   0.3840000
        k(   10) = (   0.4000000   0.4000000   0.4000000), wk =   0.1280000

     Dense  grid:    50733 G-vectors     FFT dimensions: (  45,  45,  45)

     Smooth grid:    17941 G-vectors     FFT dimensions: (  36,  36,  36)

     Estimated max dynamical RAM per process >      95.90 MB

     Estimated total dynamical RAM >     191.80 MB

     Initial potential from superposition of free atoms

     starting charge      14.9992, renormalised to      15.0000
     Starting wfcs are    9 randomized atomic wfcs +    3 random wfcs
     Checking if some PAW data can be deallocated... 

     total cpu time spent up to now is        1.8 secs

     Self-consistent Calculation

     iteration #  1     ecut=    70.00 Ry     beta= 0.70
     Davidson diagonalization with overlap
     ethr =  1.00E-02,  avg # of iterations =  6.0

     Threshold (ethr) on eigenvalues was too large:
     Diagonalizing with lowered threshold

     Davidson diagonalization with overlap
     ethr =  7.61E-06,  avg # of iterations =  6.8

     total cpu time spent up to now is        3.8 secs

     total energy              =    -906.36384850 Ry
     estimated scf accuracy    <       0.00129809 Ry

     iteration #  2     ecut=    70.00 Ry     beta= 0.70
     Davidson diagonalization with overlap
     ethr =  8.65E-06,  avg # of iterations =  1.2

     total cpu time spent up to now is        4.6 secs

     total energy              =    -906.36397084 Ry
     estimated scf accuracy    <       0.00011666 Ry

     iteration #  3     ecut=    70.00 Ry     beta= 0.70
     Davidson diagonalization with overlap
     ethr =  7.78E-07,  avg # of iterations =  2.0

     total cpu time spent up to now is        5.7 secs

     total energy              =    -906.36398656 Ry
     estimated scf accuracy    <       0.00000790 Ry

     iteration #  4     ecut=    70.00 Ry     beta= 0.70
     Davidson diagonalization with overlap
     ethr =  5.26E-08,  avg # of iterations =  2.0

     total cpu time spent up to now is        6.6 secs

     End of self-consistent calculation

          k = 0.0000 0.0000 0.0000 (  2301 PWs)   bands (ev):

   -12.6348 -12.6348 -12.2895 -12.2895 -12.2895  -2.8661  13.6120  13.6120
    13.6120  16.7910  18.2825  18.2825

          k = 0.0000 0.0000 0.2000 (  2252 PWs)   bands (ev):

   -12.6295 -12.5364 -12.3201 -12.3201 -12.2869  -2.3695   9.6741  14.1527
    14.1527  17.7440  18.7027  22.7092

          k = 0.0000 0.0000 0.4000 (  2256 PWs)   bands (ev):

   -12.6214 -12.3773 -12.3694 -12.3694 -12.2829  -1.2078   5.9327  15.2860
    15.2860  19.2394  19.9903  21.8892

          k = 0.0000 0.2000 0.2000 (  2243 PWs)   bands (ev):

   -12.5795 -12.4809 -12.3540 -12.3181 -12.3166  -1.8755  10.1083  10.3040
    14.6998  18.6369  20.5763  23.2864

          k = 0.0000 0.2000 0.4000 (  2253 PWs)   bands (ev):

   -12.5573 -12.4084 -12.3662 -12.3322 -12.3130  -0.7200   6.4493  11.4075
    15.8484  17.3436  20.1127  22.5107

          k = 0.0000 0.4000 0.4000 (  2232 PWs)   bands (ev):

   -12.4969 -12.4706 -12.3612 -12.3606 -12.2147   0.4316   7.5789   7.5976
    14.1365  17.0160  21.4143  23.1310

          k = 0.2000 0.2000 0.2000 (  2244 PWs)   bands (ev):

   -12.4768 -12.4768 -12.3528 -12.3498 -12.3498  -1.3836  10.5651  10.8240
    10.8240  20.3980  21.5091  21.5091

          k = 0.2000 0.2000 0.4000 (  2248 PWs)   bands (ev):

   -12.4700 -12.4060 -12.4031 -12.3462 -12.3091  -0.2327   6.9644  11.9154
    11.9626  17.4205  18.4128  22.5695

          k = 0.2000 0.4000 0.4000 (  2264 PWs)   bands (ev):

   -12.4660 -12.3992 -12.3982 -12.3873 -12.2124   0.9179   8.0844   8.1109
    13.1257  14.6221  19.1939  19.5686

          k = 0.4000 0.4000 0.4000 (  2257 PWs)   bands (ev):

   -12.4595 -12.4580 -12.4580 -12.2086 -12.2086   2.0798   9.1533   9.1533
     9.2780  15.4877  16.5070  16.5070

     the Fermi energy is    10.6494 ev

!    total energy              =    -906.36398810 Ry
     total all-electron energy =    -43061.821984 Ry
     estimated scf accuracy    <       0.00000009 Ry
     smearing contrib. (-TS)   =      -0.00003082 Ry
     internal energy E=F+TS    =    -906.36395728 Ry

     The total energy is F=E-TS. E is the sum of the following terms:
     one-electron contribution =     -47.76992239 Ry
     hartree contribution      =      35.07814268 Ry
     xc contribution           =     -32.51405152 Ry
     ewald contribution        =    -104.58899768 Ry
     one-center paw contrib.   =    -756.56912837 Ry

     convergence has been achieved in   4 iterations

     Forces acting on atoms (cartesian axes, Ry/au):

     atom    1 type  1   force =     0.00000000    0.00000000    0.00000000

     Total force =     0.000000     Total SCF correction =     0.000000


     Computing stress (Cartesian axis) and pressure

          total   stress  (Ry/bohr**3)                   (kbar)     P=       19.79
   0.00013450   0.00000000   0.00000000           19.79        0.00        0.00
   0.00000000   0.00013450   0.00000000            0.00       19.79        0.00
   0.00000000   0.00000000   0.00013450            0.00        0.00       19.79


     BFGS Geometry Optimization
     Energy error            =      0.0E+00 Ry
     Gradient error          =      0.0E+00 Ry/Bohr

     bfgs converged in   1 scf cycles and   0 bfgs steps
     (criteria: energy <  1.0E-04 Ry, force <  1.0E-03 Ry/Bohr)

     End of BFGS Geometry Optimization

     Final energy             =    -906.3639881031 Ry
Begin final coordinates

ATOMIC_POSITIONS (angstrom)
Bi            1.6150000000        1.6150000000        1.6150000000
End final coordinates



     init_run     :      1.28s CPU      1.41s WALL (       1 calls)
     electrons    :      4.39s CPU      4.81s WALL (       1 calls)
     forces       :      0.22s CPU      0.26s WALL (       1 calls)
     stress       :      1.32s CPU      1.56s WALL (       1 calls)

     Called by init_run:
     wfcinit      :      0.15s CPU      0.16s WALL (       1 calls)
     potinit      :      0.43s CPU      0.47s WALL (       1 calls)
     hinit0       :      0.58s CPU      0.60s WALL (       1 calls)

     Called by electrons:
     c_bands      :      2.23s CPU      2.30s WALL (       5 calls)
     sum_band     :      0.91s CPU      1.11s WALL (       5 calls)
     v_of_rho     :      0.21s CPU      0.23s WALL (       5 calls)
     newd         :      0.45s CPU      0.62s WALL (       5 calls)
     PAW_pot      :      0.83s CPU      0.86s WALL (       5 calls)
     mix_rho      :      0.02s CPU      0.02s WALL (       5 calls)

     Called by c_bands:
     init_us_2    :      0.07s CPU      0.08s WALL (     130 calls)
     init_us_2:cp :      0.07s CPU      0.08s WALL (     130 calls)
     cegterg      :      2.12s CPU      2.18s WALL (      50 calls)

     Called by *egterg:
     cdiaghg      :      0.07s CPU      0.08s WALL (     220 calls)
     h_psi        :      1.90s CPU      1.94s WALL (     240 calls)
     s_psi        :      0.03s CPU      0.03s WALL (     240 calls)
     g_psi        :      0.01s CPU      0.01s WALL (     180 calls)

     Called by h_psi:
     h_psi:calbec :      0.05s CPU      0.05s WALL (     240 calls)
     vloc_psi     :      1.80s CPU      1.84s WALL (     240 calls)
     add_vuspsi   :      0.04s CPU      0.04s WALL (     240 calls)

     General routines
     calbec       :      0.08s CPU      0.08s WALL (     340 calls)
     fft          :      0.29s CPU      0.32s WALL (      89 calls)
     ffts         :      0.20s CPU      0.21s WALL (      10 calls)
     fftw         :      1.88s CPU      1.92s WALL (    4132 calls)
     interpolate  :      0.21s CPU      0.22s WALL (       5 calls)

     Parallel routines

     PWSCF        :      7.61s CPU      8.46s WALL


   This run was terminated on:   6:15: 3   6May2024            

=------------------------------------------------------------------------------=
   JOB DONE.
=------------------------------------------------------------------------------=
