
     Program PWSCF v.7.1 starts on  6May2024 at  6:19: 0 

     This program is part of the open-source Quantum ESPRESSO suite
     for quantum simulation of materials; please cite
         "P. Giannozzi et al., J. Phys.:Condens. Matter 21 395502 (2009);
         "P. Giannozzi et al., J. Phys.:Condens. Matter 29 465901 (2017);
         "P. Giannozzi et al., J. Chem. Phys. 152 154105 (2020);
          URL http://www.quantum-espresso.org", 
     in publications or presentations arising from this work. More details at
     http://www.quantum-espresso.org/quote

     Parallel version (MPI), running on     2 processors

     MPI processes distributed on     1 nodes
     13492 MiB available memory on the printing compute node when the environment starts

     Waiting for input...
     Reading input from standard input
Warning: card &CELL ignored
Warning: card / ignored

     Current dimensions of program PWSCF are:
     Max number of different atomic species (ntypx) = 10
     Max number of k-points (npk) =  40000
     Max angular momentum in pseudopotentials (lmaxx) =  4
     file Ba.pbe-spn-kjpaw_psl.1.0.0.UPF: wavefunction(s)  5S 6S renormalized
     Message from routine setup:
     using ibrav=0 with symmetry is DISCOURAGED, use correct ibrav instead

     R & G space division:  proc/nbgrp/npool/nimage =       2
     Subspace diagonalization in iterative solution of the eigenvalue problem:
     a serial algorithm will be used


     Parallelization info
     --------------------
     sticks:   dense  smooth     PW     G-vecs:    dense   smooth      PW
     Min        1388     691    199                46369    16282    2508
     Max        1389     692    200                46370    16283    2509
     Sum        2777    1383    399                92739    32565    5017

     Using Slab Decomposition



     bravais-lattice index     =            0
     lattice parameter (alat)  =       8.1337  a.u.
     unit-cell volume          =     414.2245 (a.u.)^3
     number of atoms/cell      =            1
     number of atomic types    =            1
     number of electrons       =        10.00
     number of Kohn-Sham states=            9
     kinetic-energy cutoff     =      70.0000  Ry
     charge density cutoff     =     560.0000  Ry
     scf convergence threshold =      1.0E-07
     mixing beta               =       0.7000
     number of iterations used =            8  plain     mixing
     energy convergence thresh.=      1.0E-04
     force convergence thresh. =      1.0E-03
     Exchange-correlation= SLA  PW   PBX  PBC
                           (   1   4   3   4   0   0   0)
     nstep                     =           50


     celldm(1)=   8.133658  celldm(2)=   0.000000  celldm(3)=   0.000000
     celldm(4)=   0.000000  celldm(5)=   0.000000  celldm(6)=   0.000000

     crystal axes: (cart. coord. in units of alat)
               a(1) = (  -0.577350   0.577350   0.577350 )  
               a(2) = (   0.577350  -0.577350   0.577350 )  
               a(3) = (   0.577350   0.577350  -0.577350 )  

     reciprocal axes: (cart. coord. in units 2 pi/alat)
               b(1) = (  0.000000  0.866025  0.866025 )  
               b(2) = (  0.866025  0.000000  0.866025 )  
               b(3) = (  0.866025  0.866025  0.000000 )  


     PseudoPot. # 1 for Ba read from file:
     /home/bond/Software/qe-7.1/pseudo/Ba.pbe-spn-kjpaw_psl.1.0.0.UPF
     MD5 check sum: 7cfe25f1fe7574a4710541d5a11d6531
     Pseudo is Projector augmented-wave + core cor, Zval = 10.0
     Generated using &quot;atomic&quot; code by A. Dal Corso  v.6.2.2
     Shape of augmentation charge: PSQ
     Using radial grid of 1251 points,  7 beta functions with: 
                l(1) =   0
                l(2) =   0
                l(3) =   0
                l(4) =   1
                l(5) =   1
                l(6) =   2
                l(7) =   2
     Q(r) pseudized with 0 coefficients 


     atomic species   valence    mass     pseudopotential
        Ba            10.00   137.32700     Ba( 1.00)

     48 Sym. Ops., with inversion, found



   Cartesian axes

     site n.     atom                  positions (alat units)
         1           Ba  tau(   1) = (   0.0000000   0.0000000   0.0000000  )

     number of k points=    10  Methfessel-Paxton smearing, width (Ry)=  0.0200
                       cart. coord. in units 2pi/alat
        k(    1) = (   0.0000000   0.0000000   0.0000000), wk =   0.0160000
        k(    2) = (   0.1732051   0.1732051   0.0000000), wk =   0.1920000
        k(    3) = (   0.3464102   0.3464102   0.0000000), wk =   0.1920000
        k(    4) = (   0.3464102   0.1732051   0.1732051), wk =   0.3840000
        k(    5) = (   0.5196152   0.3464102   0.1732051), wk =   0.3840000
        k(    6) = (   0.3464102   0.3464102   0.3464102), wk =   0.1280000
        k(    7) = (   0.0000000   0.0000000   0.3464102), wk =   0.0960000
        k(    8) = (   0.0000000  -0.1732051   0.5196152), wk =   0.3840000
        k(    9) = (  -0.6928203  -0.1732051  -0.1732051), wk =   0.1280000
        k(   10) = (   0.0000000   0.0000000   0.6928203), wk =   0.0960000

     Dense  grid:    92739 G-vectors     FFT dimensions: (  64,  64,  64)

     Smooth grid:    32565 G-vectors     FFT dimensions: (  45,  45,  45)

     Estimated max dynamical RAM per process >     189.93 MB

     Estimated total dynamical RAM >     379.86 MB

     Initial potential from superposition of free atoms

     starting charge       9.9830, renormalised to      10.0000
     Starting wfcs are    5 randomized atomic wfcs +    4 random wfcs
     Checking if some PAW data can be deallocated... 

     total cpu time spent up to now is        2.3 secs

     Self-consistent Calculation

     iteration #  1     ecut=    70.00 Ry     beta= 0.70
     Davidson diagonalization with overlap
     ethr =  1.00E-02,  avg # of iterations =  8.0

     Threshold (ethr) on eigenvalues was too large:
     Diagonalizing with lowered threshold

     Davidson diagonalization with overlap
     ethr =  8.46E-06,  avg # of iterations =  8.5

     total cpu time spent up to now is        6.4 secs

     total energy              =    -436.18146815 Ry
     estimated scf accuracy    <       0.00087945 Ry

     iteration #  2     ecut=    70.00 Ry     beta= 0.70
     Davidson diagonalization with overlap
     ethr =  8.79E-06,  avg # of iterations =  1.2

     total cpu time spent up to now is        7.9 secs

     total energy              =    -436.18158115 Ry
     estimated scf accuracy    <       0.00009615 Ry

     iteration #  3     ecut=    70.00 Ry     beta= 0.70
     Davidson diagonalization with overlap
     ethr =  9.61E-07,  avg # of iterations =  2.2

     total cpu time spent up to now is        9.6 secs

     total energy              =    -436.18159309 Ry
     estimated scf accuracy    <       0.00000364 Ry

     iteration #  4     ecut=    70.00 Ry     beta= 0.70
     Davidson diagonalization with overlap
     ethr =  3.64E-08,  avg # of iterations =  4.0

     total cpu time spent up to now is       11.3 secs

     total energy              =    -436.18159455 Ry
     estimated scf accuracy    <       0.00000097 Ry

     iteration #  5     ecut=    70.00 Ry     beta= 0.70
     Davidson diagonalization with overlap
     ethr =  9.68E-09,  avg # of iterations =  2.0

     total cpu time spent up to now is       12.9 secs

     total energy              =    -436.18159471 Ry
     estimated scf accuracy    <       0.00000016 Ry

     iteration #  6     ecut=    70.00 Ry     beta= 0.70
     Davidson diagonalization with overlap
     ethr =  1.59E-09,  avg # of iterations =  2.0

     total cpu time spent up to now is       14.6 secs

     End of self-consistent calculation

          k = 0.0000 0.0000 0.0000 (  4093 PWs)   bands (ev):

   -22.7930  -7.7234  -7.7234  -7.7234   3.2949   7.9163   7.9163   7.9163
     9.3493

          k = 0.1732 0.1732 0.0000 (  4104 PWs)   bands (ev):

   -22.7763  -7.9050  -7.7797  -7.7247   4.0010   7.4121   7.4403   8.6776
     9.0140

          k = 0.3464 0.3464 0.0000 (  4100 PWs)   bands (ev):

   -22.7492  -8.1779  -7.8682  -7.7269   5.0575   6.8280   7.1458   9.3649
     9.7394

          k = 0.3464 0.1732 0.1732 (  4096 PWs)   bands (ev):

   -22.7544  -8.0868  -7.8597  -7.7635   5.0665   6.7465   7.0391   8.9406
     9.8414

          k = 0.5196 0.3464 0.1732 (  4081 PWs)   bands (ev):

   -22.7408  -8.1620  -7.9547  -7.7745   5.6809   6.6921   6.9371   9.1942
     9.9447

          k = 0.3464 0.3464 0.3464 (  4099 PWs)   bands (ev):

   -22.7435  -8.0993  -7.8925  -7.8925   6.2647   6.5457   6.5457   9.9119
    10.7687

          k = 0.0000 0.0000 0.3464 (  4085 PWs)   bands (ev):

   -22.7612  -7.9318  -7.8393  -7.8393   4.6303   7.3308   7.8053   7.8053
     8.6511

          k = 0.0000-0.1732 0.5196 (  4110 PWs)   bands (ev):

   -22.7365  -8.1328  -7.9329  -7.8522   5.6200   6.4650   7.5546   8.1953
     9.9446

          k =-0.6928-0.1732-0.1732 (  4112 PWs)   bands (ev):

   -22.7253  -8.0838  -8.0838  -7.8769   6.0923   6.0923   7.1100   9.5099
     9.5099

          k = 0.0000 0.0000 0.6928 (  4104 PWs)   bands (ev):

   -22.7158  -8.0680  -8.0342  -8.0342   5.6871   5.6909   9.1874   9.1874
     9.6887

     the Fermi energy is     6.1208 ev

!    total energy              =    -436.18159472 Ry
     total all-electron energy =    -16271.274711 Ry
     estimated scf accuracy    <          3.7E-09 Ry
     smearing contrib. (-TS)   =       0.00079587 Ry
     internal energy E=F+TS    =    -436.18239059 Ry

     The total energy is F=E-TS. E is the sum of the following terms:
     one-electron contribution =     -10.82502796 Ry
     hartree contribution      =       8.50877746 Ry
     xc contribution           =     -20.16888606 Ry
     ewald contribution        =     -38.74847901 Ry
     one-center paw contrib.   =    -374.94877503 Ry

     convergence has been achieved in   6 iterations

     Forces acting on atoms (cartesian axes, Ry/au):

     atom    1 type  1   force =     0.00000000    0.00000000    0.00000000

     Total force =     0.000000     Total SCF correction =     0.000000


     Computing stress (Cartesian axis) and pressure

          total   stress  (Ry/bohr**3)                   (kbar)     P=        1.33
   0.00000905   0.00000000   0.00000000            1.33        0.00        0.00
   0.00000000   0.00000905   0.00000000            0.00        1.33        0.00
   0.00000000   0.00000000   0.00000905            0.00        0.00        1.33


     BFGS Geometry Optimization
     Energy error            =      0.0E+00 Ry
     Gradient error          =      0.0E+00 Ry/Bohr

     bfgs converged in   1 scf cycles and   0 bfgs steps
     (criteria: energy <  1.0E-04 Ry, force <  1.0E-03 Ry/Bohr)

     End of BFGS Geometry Optimization

     Final energy             =    -436.1815947199 Ry
Begin final coordinates

ATOMIC_POSITIONS (angstrom)
Ba            0.0000000000        0.0000000000        0.0000000000
End final coordinates



     init_run     :      1.69s CPU      1.89s WALL (       1 calls)
     electrons    :     11.06s CPU     12.24s WALL (       1 calls)
     forces       :      0.46s CPU      0.52s WALL (       1 calls)
     stress       :      2.53s CPU      2.81s WALL (       1 calls)

     Called by init_run:
     wfcinit      :      0.28s CPU      0.31s WALL (       1 calls)
     potinit      :      0.38s CPU      0.42s WALL (       1 calls)
     hinit0       :      0.75s CPU      0.81s WALL (       1 calls)

     Called by electrons:
     c_bands      :      5.73s CPU      5.91s WALL (       7 calls)
     sum_band     :      2.54s CPU      3.14s WALL (       7 calls)
     v_of_rho     :      0.70s CPU      0.78s WALL (       7 calls)
     newd         :      1.25s CPU      1.62s WALL (       7 calls)
     PAW_pot      :      1.14s CPU      1.17s WALL (       7 calls)
     mix_rho      :      0.07s CPU      0.07s WALL (       7 calls)

     Called by c_bands:
     init_us_2    :      0.18s CPU      0.18s WALL (     170 calls)
     init_us_2:cp :      0.18s CPU      0.18s WALL (     170 calls)
     cegterg      :      5.45s CPU      5.62s WALL (      70 calls)

     Called by *egterg:
     cdiaghg      :      0.07s CPU      0.08s WALL (     339 calls)
     h_psi        :      5.03s CPU      5.21s WALL (     359 calls)
     s_psi        :      0.08s CPU      0.09s WALL (     359 calls)
     g_psi        :      0.02s CPU      0.02s WALL (     279 calls)

     Called by h_psi:
     h_psi:calbec :      0.12s CPU      0.13s WALL (     359 calls)
     vloc_psi     :      4.79s CPU      4.96s WALL (     359 calls)
     add_vuspsi   :      0.10s CPU      0.10s WALL (     359 calls)

     General routines
     calbec       :      0.19s CPU      0.19s WALL (     479 calls)
     fft          :      0.73s CPU      0.77s WALL (     115 calls)
     ffts         :      0.12s CPU      0.12s WALL (      14 calls)
     fftw         :      5.05s CPU      5.23s WALL (    4484 calls)
     interpolate  :      0.14s CPU      0.14s WALL (       7 calls)

     Parallel routines

     PWSCF        :     16.15s CPU     17.91s WALL


   This run was terminated on:   6:19:18   6May2024            

=------------------------------------------------------------------------------=
   JOB DONE.
=------------------------------------------------------------------------------=
