
     Program PWSCF v.7.1 starts on  6May2024 at  2:49:44 

     This program is part of the open-source Quantum ESPRESSO suite
     for quantum simulation of materials; please cite
         "P. Giannozzi et al., J. Phys.:Condens. Matter 21 395502 (2009);
         "P. Giannozzi et al., J. Phys.:Condens. Matter 29 465901 (2017);
         "P. Giannozzi et al., J. Chem. Phys. 152 154105 (2020);
          URL http://www.quantum-espresso.org", 
     in publications or presentations arising from this work. More details at
     http://www.quantum-espresso.org/quote

     Parallel version (MPI), running on     2 processors

     MPI processes distributed on     1 nodes
     13800 MiB available memory on the printing compute node when the environment starts

     Waiting for input...
     Reading input from standard input
Warning: card &CELL ignored
Warning: card / ignored

     Current dimensions of program PWSCF are:
     Max number of different atomic species (ntypx) = 10
     Max number of k-points (npk) =  40000
     Max angular momentum in pseudopotentials (lmaxx) =  4
     file Ba.pbe-spn-kjpaw_psl.1.0.0.UPF: wavefunction(s)  5S 6S renormalized
     file Bi.pbe-dn-kjpaw_psl.1.0.0.UPF: wavefunction(s)  6P 5D renormalized
     file O.pbe-n-kjpaw_psl.1.0.0.UPF: wavefunction(s)  2S 2P renormalized
     Message from routine setup:
     using ibrav=0 with symmetry is DISCOURAGED, use correct ibrav instead

     R & G space division:  proc/nbgrp/npool/nimage =       2
     Subspace diagonalization in iterative solution of the eigenvalue problem:
     a serial algorithm will be used


     Parallelization info
     --------------------
     sticks:   dense  smooth     PW     G-vecs:    dense   smooth      PW
     Min        1542     774    218                64281    22776    3428
     Max        1543     775    219                64282    22777    3431
     Sum        3085    1549    437               128563    45553    6859

     Using Slab Decomposition



     bravais-lattice index     =            0
     lattice parameter (alat)  =       8.3148  a.u.
     unit-cell volume          =     574.8501 (a.u.)^3
     number of atoms/cell      =            5
     number of atomic types    =            3
     number of electrons       =        43.00
     number of Kohn-Sham states=           26
     kinetic-energy cutoff     =      70.0000  Ry
     charge density cutoff     =     560.0000  Ry
     scf convergence threshold =      1.0E-07
     mixing beta               =       0.7000
     number of iterations used =            8  plain     mixing
     Exchange-correlation= SLA  PW   PBX  PBC
                           (   1   4   3   4   0   0   0)

     celldm(1)=   8.314795  celldm(2)=   0.000000  celldm(3)=   0.000000
     celldm(4)=   0.000000  celldm(5)=   0.000000  celldm(6)=   0.000000

     crystal axes: (cart. coord. in units of alat)
               a(1) = (   1.000000   0.000000   0.000000 )  
               a(2) = (   0.000000   1.000000   0.000000 )  
               a(3) = (   0.000000   0.000000   1.000000 )  

     reciprocal axes: (cart. coord. in units 2 pi/alat)
               b(1) = (  1.000000  0.000000  0.000000 )  
               b(2) = (  0.000000  1.000000  0.000000 )  
               b(3) = (  0.000000  0.000000  1.000000 )  


     PseudoPot. # 1 for Ba read from file:
     /home/bond/Software/qe-7.1/pseudo/Ba.pbe-spn-kjpaw_psl.1.0.0.UPF
     MD5 check sum: 7cfe25f1fe7574a4710541d5a11d6531
     Pseudo is Projector augmented-wave + core cor, Zval = 10.0
     Generated using &quot;atomic&quot; code by A. Dal Corso  v.6.2.2
     Shape of augmentation charge: PSQ
     Using radial grid of 1251 points,  7 beta functions with: 
                l(1) =   0
                l(2) =   0
                l(3) =   0
                l(4) =   1
                l(5) =   1
                l(6) =   2
                l(7) =   2
     Q(r) pseudized with 0 coefficients 


     PseudoPot. # 2 for Bi read from file:
     /home/bond/Software/qe-7.1/pseudo/Bi.pbe-dn-kjpaw_psl.1.0.0.UPF
     MD5 check sum: 266ded784ae3bc462508ed03f0f37963
     Pseudo is Projector augmented-wave + core cor, Zval = 15.0
     Generated using &quot;atomic&quot; code by A. Dal Corso  v.6.2.2
     Shape of augmentation charge: PSQ
     Using radial grid of 1283 points,  6 beta functions with: 
                l(1) =   0
                l(2) =   0
                l(3) =   1
                l(4) =   1
                l(5) =   2
                l(6) =   2
     Q(r) pseudized with 0 coefficients 


     PseudoPot. # 3 for O  read from file:
     /home/bond/Software/qe-7.1/pseudo/O.pbe-n-kjpaw_psl.1.0.0.UPF
     MD5 check sum: e99d9cef9b487d1ca56f5b95ecd0fd7a
     Pseudo is Projector augmented-wave + core cor, Zval =  6.0
     Generated using &quot;atomic&quot; code by A. Dal Corso  v.6.3
     Shape of augmentation charge: PSQ
     Using radial grid of 1095 points,  4 beta functions with: 
                l(1) =   0
                l(2) =   0
                l(3) =   1
                l(4) =   1
     Q(r) pseudized with 0 coefficients 


     atomic species   valence    mass     pseudopotential
        Ba            10.00   137.32700     Ba( 1.00)
        Bi            15.00   208.98040     Bi( 1.00)
        O              6.00    15.99900     O ( 1.00)

     48 Sym. Ops., with inversion, found



   Cartesian axes

     site n.     atom                  positions (alat units)
         1           Ba  tau(   1) = (   0.5000000   0.5000000   0.5000000  )
         2           Bi  tau(   2) = (   0.0000000   0.0000000   0.0000000  )
         3           O   tau(   3) = (   0.0000000   0.0000000   0.5000000  )
         4           O   tau(   4) = (   0.5000000   0.0000000   0.0000000  )
         5           O   tau(   5) = (   0.0000000   0.5000000   0.0000000  )

     number of k points=    10  Methfessel-Paxton smearing, width (Ry)=  0.0200
                       cart. coord. in units 2pi/alat
        k(    1) = (   0.0000000   0.0000000   0.0000000), wk =   0.0160000
        k(    2) = (   0.0000000   0.0000000   0.2000000), wk =   0.0960000
        k(    3) = (   0.0000000   0.0000000   0.4000000), wk =   0.0960000
        k(    4) = (   0.0000000   0.2000000   0.2000000), wk =   0.1920000
        k(    5) = (   0.0000000   0.2000000   0.4000000), wk =   0.3840000
        k(    6) = (   0.0000000   0.4000000   0.4000000), wk =   0.1920000
        k(    7) = (   0.2000000   0.2000000   0.2000000), wk =   0.1280000
        k(    8) = (   0.2000000   0.2000000   0.4000000), wk =   0.3840000
        k(    9) = (   0.2000000   0.4000000   0.4000000), wk =   0.3840000
        k(   10) = (   0.4000000   0.4000000   0.4000000), wk =   0.1280000

     Dense  grid:   128563 G-vectors     FFT dimensions: (  64,  64,  64)

     Smooth grid:    45553 G-vectors     FFT dimensions: (  45,  45,  45)

     Estimated max dynamical RAM per process >     277.77 MB

     Estimated total dynamical RAM >     555.54 MB

     Initial potential from superposition of free atoms

     starting charge      42.9822, renormalised to      43.0000
     Starting wfcs are   26 randomized atomic wfcs
     Checking if some PAW data can be deallocated... 

     total cpu time spent up to now is        5.2 secs

     Self-consistent Calculation

     iteration #  1     ecut=    70.00 Ry     beta= 0.70
     Davidson diagonalization with overlap
     ethr =  1.00E-02,  avg # of iterations =  3.0

     total cpu time spent up to now is        9.9 secs

     total energy              =   -1466.64725025 Ry
     estimated scf accuracy    <       1.75186213 Ry

     iteration #  2     ecut=    70.00 Ry     beta= 0.70
     Davidson diagonalization with overlap
     ethr =  4.07E-03,  avg # of iterations =  7.0

     total cpu time spent up to now is       16.2 secs

     total energy              =   -1467.12798892 Ry
     estimated scf accuracy    <       3.88432797 Ry

     iteration #  3     ecut=    70.00 Ry     beta= 0.70
     Davidson diagonalization with overlap
     ethr =  4.07E-03,  avg # of iterations =  2.0

     total cpu time spent up to now is       21.2 secs

     total energy              =   -1467.37199365 Ry
     estimated scf accuracy    <       0.45171940 Ry

     iteration #  4     ecut=    70.00 Ry     beta= 0.70
     Davidson diagonalization with overlap
     ethr =  1.05E-03,  avg # of iterations =  5.3

     total cpu time spent up to now is       27.3 secs

     total energy              =   -1467.78023706 Ry
     estimated scf accuracy    <       0.22045613 Ry

     iteration #  5     ecut=    70.00 Ry     beta= 0.70
     Davidson diagonalization with overlap
     ethr =  5.13E-04,  avg # of iterations =  2.4

     total cpu time spent up to now is       31.8 secs

     total energy              =   -1467.74107104 Ry
     estimated scf accuracy    <       0.11215793 Ry

     iteration #  6     ecut=    70.00 Ry     beta= 0.70
     Davidson diagonalization with overlap
     ethr =  2.61E-04,  avg # of iterations =  5.3

     total cpu time spent up to now is       37.0 secs

     total energy              =   -1467.75700132 Ry
     estimated scf accuracy    <       0.00534269 Ry

     iteration #  7     ecut=    70.00 Ry     beta= 0.70
     Davidson diagonalization with overlap
     c_bands:  2 eigenvalues not converged
     c_bands:  2 eigenvalues not converged
     c_bands:  1 eigenvalues not converged
     c_bands:  1 eigenvalues not converged
     ethr =  1.24E-05,  avg # of iterations = 15.9

     total cpu time spent up to now is       45.2 secs

     total energy              =   -1467.76735112 Ry
     estimated scf accuracy    <       0.00593092 Ry

     iteration #  8     ecut=    70.00 Ry     beta= 0.70
     Davidson diagonalization with overlap
     ethr =  1.24E-05,  avg # of iterations =  4.8

     total cpu time spent up to now is       49.9 secs

     total energy              =   -1467.76504221 Ry
     estimated scf accuracy    <       0.00556600 Ry

     iteration #  9     ecut=    70.00 Ry     beta= 0.70
     Davidson diagonalization with overlap
     ethr =  1.24E-05,  avg # of iterations =  1.7

     total cpu time spent up to now is       54.4 secs

     total energy              =   -1467.76522388 Ry
     estimated scf accuracy    <       0.00070941 Ry

     iteration # 10     ecut=    70.00 Ry     beta= 0.70
     Davidson diagonalization with overlap
     ethr =  1.65E-06,  avg # of iterations =  7.3

     total cpu time spent up to now is       60.6 secs

     total energy              =   -1467.76598577 Ry
     estimated scf accuracy    <       0.00063842 Ry

     iteration # 11     ecut=    70.00 Ry     beta= 0.70
     Davidson diagonalization with overlap
     ethr =  1.48E-06,  avg # of iterations =  1.3

     total cpu time spent up to now is       65.0 secs

     total energy              =   -1467.76595501 Ry
     estimated scf accuracy    <       0.00023787 Ry

     iteration # 12     ecut=    70.00 Ry     beta= 0.70
     Davidson diagonalization with overlap
     ethr =  5.53E-07,  avg # of iterations =  2.0

     total cpu time spent up to now is       70.1 secs

     total energy              =   -1467.76598903 Ry
     estimated scf accuracy    <       0.00004590 Ry

     iteration # 13     ecut=    70.00 Ry     beta= 0.70
     Davidson diagonalization with overlap
     ethr =  1.07E-07,  avg # of iterations =  2.2

     total cpu time spent up to now is       74.8 secs

     total energy              =   -1467.76598003 Ry
     estimated scf accuracy    <       0.00004596 Ry

     iteration # 14     ecut=    70.00 Ry     beta= 0.70
     Davidson diagonalization with overlap
     ethr =  1.07E-07,  avg # of iterations =  2.0

     total cpu time spent up to now is       79.4 secs

     total energy              =   -1467.76598410 Ry
     estimated scf accuracy    <       0.00001315 Ry

     iteration # 15     ecut=    70.00 Ry     beta= 0.70
     Davidson diagonalization with overlap
     ethr =  3.06E-08,  avg # of iterations =  4.6

     total cpu time spent up to now is       84.6 secs

     total energy              =   -1467.76598477 Ry
     estimated scf accuracy    <       0.00000631 Ry

     iteration # 16     ecut=    70.00 Ry     beta= 0.70
     Davidson diagonalization with overlap
     ethr =  1.47E-08,  avg # of iterations =  4.3

     total cpu time spent up to now is       90.0 secs

     total energy              =   -1467.76598614 Ry
     estimated scf accuracy    <       0.00000052 Ry

     iteration # 17     ecut=    70.00 Ry     beta= 0.70
     Davidson diagonalization with overlap
     ethr =  1.21E-09,  avg # of iterations =  5.0

     total cpu time spent up to now is       95.8 secs

     End of self-consistent calculation

          k = 0.0000 0.0000 0.0000 (  5695 PWs)   bands (ev):

   -17.0001 -12.9017 -12.9017 -12.4855 -12.4855 -12.4855  -8.7054  -6.2627
    -6.2627  -2.1196  -2.1196  -2.1196   3.6573   4.2422   4.2422   4.2422
     7.8797   7.8797   7.8797   8.1234   8.1234   8.1234  13.2709  13.2709
    14.4155  15.2419

          k = 0.0000 0.0000 0.2000 (  5670 PWs)   bands (ev):

   -16.9909 -12.9012 -12.8430 -12.4887 -12.4887 -12.4853  -8.6065  -6.5964
    -6.2583  -2.0906  -2.0906  -2.0709   2.2798   4.2464   4.2464   5.9779
     7.6842   7.7941   7.7941   8.0417   8.0417   8.2914  13.7417  13.7605
    15.0938  15.5756

          k = 0.0000 0.0000 0.4000 (  5678 PWs)   bands (ev):

   -16.9758 -12.9006 -12.7453 -12.4938 -12.4938 -12.4852  -8.3114  -7.2603
    -6.2512  -2.0426  -2.0426  -2.0136   1.4963   4.2448   4.2448   6.6186
     7.4081   7.7191   7.7191   7.8743   7.8743   9.7481  14.4782  14.5350
    15.5122  16.0550

          k = 0.0000 0.2000 0.2000 (  5692 PWs)   bands (ev):

   -16.9824 -12.8725 -12.8109 -12.4915 -12.4887 -12.4884  -8.5049  -6.7180
    -6.4358  -2.1182  -2.0658  -2.0289   1.3809   4.2828   5.2162   6.2053
     7.3922   7.6981   7.8964   7.9398   8.2288   8.5075  14.0434  14.2783
    15.2877  15.6592

          k = 0.0000 0.2000 0.4000 (  5663 PWs)   bands (ev):

   -16.9686 -12.8625 -12.7192 -12.4961 -12.4936 -12.4882  -8.1997  -7.2836
    -6.4936  -2.0986  -2.0427  -2.0249   0.6549   4.3379   5.5861   6.5470
     7.2886   7.6057   7.7346   7.8390   8.1891  10.0023  14.6774  14.9624
    15.6526  15.8099

          k = 0.0000 0.4000 0.4000 (  5678 PWs)   bands (ev):

   -16.9568 -12.8271 -12.6469 -12.4997 -12.4932 -12.4931  -7.8651  -7.3839
    -6.9920  -2.1512  -2.1218  -1.9957  -0.0956   4.5014   6.3731   7.1091
     7.3662   7.4360   7.4971   7.9407   8.5278  11.0252  14.8480  15.0798
    15.3703  15.5600

          k = 0.2000 0.2000 0.2000 (  5689 PWs)   bands (ev):

   -16.9745 -12.8106 -12.8106 -12.4917 -12.4917 -12.4910  -8.4049  -6.7051
    -6.7051  -2.1264  -2.1264  -1.9847   0.6219   5.2475   5.2475   6.2989
     7.3934   7.3934   8.1395   8.1595   8.1595   8.7127  14.4000  14.4001
    15.2467  15.6957

          k = 0.2000 0.2000 0.4000 (  5678 PWs)   bands (ev):

   -16.9616 -12.8100 -12.7067 -12.4971 -12.4955 -12.4914  -8.1012  -7.2890
    -6.6838  -2.1401  -2.1310  -2.0208  -0.0877   5.2936   5.9282   6.5828
     7.2006   7.4354   8.0119   8.0167   8.2524  10.1852  14.5391  14.8890
    15.4583  15.5756

          k = 0.2000 0.4000 0.4000 (  5696 PWs)   bands (ev):

   -16.9503 -12.7601 -12.6468 -12.5008 -12.4967 -12.4964  -7.8038  -7.3621
    -7.0830  -2.2060  -2.1968  -2.0854  -0.8462   5.7049   6.6014   7.1123
     7.1872   7.4445   7.9894   8.1544   8.5431  11.1242  14.1481  14.2234
    14.7699  15.7236

          k = 0.4000 0.4000 0.4000 (  5718 PWs)   bands (ev):

   -16.9396 -12.6465 -12.6465 -12.5024 -12.5024 -12.5015  -7.6204  -7.3264
    -7.3264  -2.2946  -2.2946  -2.2413  -1.6910   6.9590   7.1465   7.1465
     7.4541   7.4541   8.4844   8.4844   8.5981  11.6721  13.2062  13.2062
    13.8480  16.6720

     the Fermi energy is    10.1373 ev

!    total energy              =   -1467.76598657 Ry
     total all-electron energy =    -59784.857769 Ry
     estimated scf accuracy    <       0.00000001 Ry
     smearing contrib. (-TS)   =      -0.00130659 Ry
     internal energy E=F+TS    =   -1467.76467998 Ry

     The total energy is F=E-TS. E is the sum of the following terms:
     one-electron contribution =     -81.91031066 Ry
     hartree contribution      =      73.07223375 Ry
     xc contribution           =     -75.33906212 Ry
     ewald contribution        =    -223.27266733 Ry
     one-center paw contrib.   =   -1160.31487362 Ry

     convergence has been achieved in  17 iterations

     Forces acting on atoms (cartesian axes, Ry/au):

     atom    1 type  1   force =     0.00000000    0.00000000    0.00000000
     atom    2 type  2   force =     0.00000000    0.00000000    0.00000000
     atom    3 type  3   force =     0.00000000    0.00000000    0.00000000
     atom    4 type  3   force =     0.00000000    0.00000000    0.00000000
     atom    5 type  3   force =     0.00000000    0.00000000    0.00000000

     Total force =     0.000000     Total SCF correction =     0.000000


     Computing stress (Cartesian axis) and pressure

          total   stress  (Ry/bohr**3)                   (kbar)     P=       17.50
   0.00011896   0.00000000   0.00000000           17.50        0.00        0.00
   0.00000000   0.00011896   0.00000000            0.00       17.50        0.00
   0.00000000   0.00000000   0.00011896            0.00        0.00       17.50


     init_run     :      3.71s CPU      4.10s WALL (       1 calls)
     electrons    :     83.77s CPU     90.62s WALL (       1 calls)
     forces       :      1.28s CPU      1.43s WALL (       1 calls)
     stress       :      7.51s CPU      8.00s WALL (       1 calls)

     Called by init_run:
     wfcinit      :      0.93s CPU      0.97s WALL (       1 calls)
     potinit      :      0.81s CPU      0.87s WALL (       1 calls)
     hinit0       :      1.35s CPU      1.45s WALL (       1 calls)

     Called by electrons:
     c_bands      :     47.00s CPU     47.67s WALL (      17 calls)
     sum_band     :     17.13s CPU     20.23s WALL (      17 calls)
     v_of_rho     :      2.03s CPU      2.07s WALL (      18 calls)
     newd         :      8.66s CPU     11.78s WALL (      18 calls)
     PAW_pot      :      9.52s CPU      9.62s WALL (      18 calls)
     mix_rho      :      0.34s CPU      0.34s WALL (      17 calls)

     Called by c_bands:
     init_us_2    :      0.93s CPU      0.94s WALL (     370 calls)
     init_us_2:cp :      0.92s CPU      0.94s WALL (     370 calls)
     cegterg      :     44.87s CPU     45.51s WALL (     170 calls)

     Called by *egterg:
     cdiaghg      :      1.16s CPU      1.17s WALL (     931 calls)
     h_psi        :     36.10s CPU     36.65s WALL (     941 calls)
     s_psi        :      1.56s CPU      1.58s WALL (     941 calls)
     g_psi        :      0.19s CPU      0.19s WALL (     761 calls)

     Called by h_psi:
     h_psi:calbec :      1.85s CPU      1.88s WALL (     941 calls)
     vloc_psi     :     32.41s CPU     32.89s WALL (     941 calls)
     add_vuspsi   :      1.67s CPU      1.70s WALL (     941 calls)

     General routines
     calbec       :      2.62s CPU      2.67s WALL (    1161 calls)
     fft          :      1.50s CPU      1.53s WALL (     257 calls)
     ffts         :      0.16s CPU      0.16s WALL (      35 calls)
     fftw         :     34.64s CPU     35.14s WALL (   28816 calls)
     interpolate  :      0.23s CPU      0.23s WALL (      18 calls)

     Parallel routines

     PWSCF        :   1m37.22s CPU   1m45.22s WALL


   This run was terminated on:   2:51:29   6May2024            

=------------------------------------------------------------------------------=
   JOB DONE.
=------------------------------------------------------------------------------=
