
     Program PWSCF v.7.1 starts on  6May2024 at  6:45:32 

     This program is part of the open-source Quantum ESPRESSO suite
     for quantum simulation of materials; please cite
         "P. Giannozzi et al., J. Phys.:Condens. Matter 21 395502 (2009);
         "P. Giannozzi et al., J. Phys.:Condens. Matter 29 465901 (2017);
         "P. Giannozzi et al., J. Chem. Phys. 152 154105 (2020);
          URL http://www.quantum-espresso.org", 
     in publications or presentations arising from this work. More details at
     http://www.quantum-espresso.org/quote

     Parallel version (MPI), running on     2 processors

     MPI processes distributed on     1 nodes
     13509 MiB available memory on the printing compute node when the environment starts

     Waiting for input...
     Reading input from standard input
Warning: card &CELL ignored
Warning: card / ignored

     Current dimensions of program PWSCF are:
     Max number of different atomic species (ntypx) = 10
     Max number of k-points (npk) =  40000
     Max angular momentum in pseudopotentials (lmaxx) =  4
     file Ba.pbe-spn-kjpaw_psl.1.0.0.UPF: wavefunction(s)  5S 6S renormalized
     file Bi.pbe-dn-kjpaw_psl.1.0.0.UPF: wavefunction(s)  6P 5D renormalized
     file N.pbe-n-kjpaw_psl.1.0.0.UPF: wavefunction(s)  2S renormalized
     file O.pbe-n-kjpaw_psl.1.0.0.UPF: wavefunction(s)  2S 2P renormalized
     Message from routine setup:
     using ibrav=0 with symmetry is DISCOURAGED, use correct ibrav instead

     R & G space division:  proc/nbgrp/npool/nimage =       2
     Subspace diagonalization in iterative solution of the eigenvalue problem:
     a serial algorithm will be used


     Parallelization info
     --------------------
     sticks:   dense  smooth     PW     G-vecs:    dense   smooth      PW
     Min        1562     782    218                65744    23290    3488
     Max        1563     783    219                65747    23295    3491
     Sum        3125    1565    437               131491    46585    6979

     Using Slab Decomposition



     bravais-lattice index     =            0
     lattice parameter (alat)  =       8.3715  a.u.
     unit-cell volume          =     586.6888 (a.u.)^3
     number of atoms/cell      =            5
     number of atomic types    =            4
     number of electrons       =        42.00
     number of Kohn-Sham states=           21
     kinetic-energy cutoff     =      70.0000  Ry
     charge density cutoff     =     560.0000  Ry
     scf convergence threshold =      1.0E-07
     mixing beta               =       0.7000
     number of iterations used =            8  plain     mixing
     Exchange-correlation= SLA  PW   PBX  PBC
                           (   1   4   3   4   0   0   0)

     celldm(1)=   8.371487  celldm(2)=   0.000000  celldm(3)=   0.000000
     celldm(4)=   0.000000  celldm(5)=   0.000000  celldm(6)=   0.000000

     crystal axes: (cart. coord. in units of alat)
               a(1) = (   1.000000   0.000000   0.000000 )  
               a(2) = (   0.000000   1.000000   0.000000 )  
               a(3) = (   0.000000   0.000000   1.000000 )  

     reciprocal axes: (cart. coord. in units 2 pi/alat)
               b(1) = (  1.000000  0.000000  0.000000 )  
               b(2) = (  0.000000  1.000000  0.000000 )  
               b(3) = (  0.000000  0.000000  1.000000 )  


     PseudoPot. # 1 for Ba read from file:
     /home/bond/Software/qe-7.1/pseudo/Ba.pbe-spn-kjpaw_psl.1.0.0.UPF
     MD5 check sum: 7cfe25f1fe7574a4710541d5a11d6531
     Pseudo is Projector augmented-wave + core cor, Zval = 10.0
     Generated using &quot;atomic&quot; code by A. Dal Corso  v.6.2.2
     Shape of augmentation charge: PSQ
     Using radial grid of 1251 points,  7 beta functions with: 
                l(1) =   0
                l(2) =   0
                l(3) =   0
                l(4) =   1
                l(5) =   1
                l(6) =   2
                l(7) =   2
     Q(r) pseudized with 0 coefficients 


     PseudoPot. # 2 for Bi read from file:
     /home/bond/Software/qe-7.1/pseudo/Bi.pbe-dn-kjpaw_psl.1.0.0.UPF
     MD5 check sum: 266ded784ae3bc462508ed03f0f37963
     Pseudo is Projector augmented-wave + core cor, Zval = 15.0
     Generated using &quot;atomic&quot; code by A. Dal Corso  v.6.2.2
     Shape of augmentation charge: PSQ
     Using radial grid of 1283 points,  6 beta functions with: 
                l(1) =   0
                l(2) =   0
                l(3) =   1
                l(4) =   1
                l(5) =   2
                l(6) =   2
     Q(r) pseudized with 0 coefficients 


     PseudoPot. # 3 for N  read from file:
     /home/bond/Software/qe-7.1/pseudo/N.pbe-n-kjpaw_psl.1.0.0.UPF
     MD5 check sum: 14c48229446f9f2d411169a3abcbc3fa
     Pseudo is Projector augmented-wave + core cor, Zval =  5.0
     Generated using &quot;atomic&quot; code by A. Dal Corso  v.6.3
     Shape of augmentation charge: PSQ
     Using radial grid of 1085 points,  4 beta functions with: 
                l(1) =   0
                l(2) =   0
                l(3) =   1
                l(4) =   1
     Q(r) pseudized with 0 coefficients 


     PseudoPot. # 4 for O  read from file:
     /home/bond/Software/qe-7.1/pseudo/O.pbe-n-kjpaw_psl.1.0.0.UPF
     MD5 check sum: e99d9cef9b487d1ca56f5b95ecd0fd7a
     Pseudo is Projector augmented-wave + core cor, Zval =  6.0
     Generated using &quot;atomic&quot; code by A. Dal Corso  v.6.3
     Shape of augmentation charge: PSQ
     Using radial grid of 1095 points,  4 beta functions with: 
                l(1) =   0
                l(2) =   0
                l(3) =   1
                l(4) =   1
     Q(r) pseudized with 0 coefficients 


     atomic species   valence    mass     pseudopotential
        Ba            10.00   137.32700     Ba( 1.00)
        Bi            15.00   208.98040     Bi( 1.00)
        N              5.00    14.00700     N ( 1.00)
        O              6.00    15.99900     O ( 1.00)

     16 Sym. Ops., with inversion, found



   Cartesian axes

     site n.     atom                  positions (alat units)
         1           Ba  tau(   1) = (   0.5000000   0.5000000   0.5000000  )
         2           Bi  tau(   2) = (   0.0000000   0.0000000   0.0000000  )
         3           O   tau(   3) = (   0.0000000   0.0000000   0.5000000  )
         4           O   tau(   4) = (   0.5000000   0.0000000   0.0000000  )
         5           N   tau(   5) = (   0.0000000   0.5000000   0.0000000  )

     number of k points=    18
                       cart. coord. in units 2pi/alat
        k(    1) = (   0.0000000   0.0000000   0.0000000), wk =   0.0160000
        k(    2) = (   0.0000000   0.0000000   0.2000000), wk =   0.0640000
        k(    3) = (   0.0000000   0.0000000   0.4000000), wk =   0.0640000
        k(    4) = (   0.0000000   0.2000000   0.2000000), wk =   0.1280000
        k(    5) = (   0.0000000   0.2000000   0.4000000), wk =   0.1280000
        k(    6) = (   0.0000000   0.4000000   0.4000000), wk =   0.1280000
        k(    7) = (   0.2000000   0.2000000   0.2000000), wk =   0.1280000
        k(    8) = (   0.2000000   0.2000000   0.4000000), wk =   0.2560000
        k(    9) = (   0.2000000   0.4000000   0.4000000), wk =   0.2560000
        k(   10) = (   0.4000000   0.4000000   0.4000000), wk =   0.1280000
        k(   11) = (   0.0000000   0.2000000   0.0000000), wk =   0.0320000
        k(   12) = (   0.0000000   0.4000000   0.0000000), wk =   0.0320000
        k(   13) = (   0.2000000   0.0000000   0.2000000), wk =   0.0640000
        k(   14) = (   0.2000000   0.4000000   0.0000000), wk =   0.1280000
        k(   15) = (   0.4000000   0.0000000   0.2000000), wk =   0.1280000
        k(   16) = (   0.4000000   0.0000000   0.4000000), wk =   0.0640000
        k(   17) = (   0.2000000   0.4000000   0.2000000), wk =   0.1280000
        k(   18) = (   0.4000000   0.2000000   0.4000000), wk =   0.1280000

     Dense  grid:   131491 G-vectors     FFT dimensions: (  64,  64,  64)

     Smooth grid:    46585 G-vectors     FFT dimensions: (  45,  45,  45)

     Estimated max dynamical RAM per process >     293.22 MB

     Estimated total dynamical RAM >     586.44 MB

     Initial potential from superposition of free atoms

     starting charge      41.9822, renormalised to      42.0000
     Starting wfcs are   26 randomized atomic wfcs
     Checking if some PAW data can be deallocated... 

     total cpu time spent up to now is        6.3 secs

     Self-consistent Calculation

     iteration #  1     ecut=    70.00 Ry     beta= 0.70
     Davidson diagonalization with overlap
     ethr =  1.00E-02,  avg # of iterations =  1.9

     total cpu time spent up to now is       11.8 secs

     total energy              =   -1453.12740443 Ry
     estimated scf accuracy    <       1.62986519 Ry

     iteration #  2     ecut=    70.00 Ry     beta= 0.70
     Davidson diagonalization with overlap
     ethr =  3.88E-03,  avg # of iterations =  5.7

     total cpu time spent up to now is       19.6 secs

     total energy              =   -1453.70813548 Ry
     estimated scf accuracy    <       2.66617719 Ry

     iteration #  3     ecut=    70.00 Ry     beta= 0.70
     Davidson diagonalization with overlap
     ethr =  3.88E-03,  avg # of iterations =  2.7

     total cpu time spent up to now is       25.6 secs

     total energy              =   -1453.86035928 Ry
     estimated scf accuracy    <       0.44186953 Ry

     iteration #  4     ecut=    70.00 Ry     beta= 0.70
     Davidson diagonalization with overlap
     ethr =  1.05E-03,  avg # of iterations =  6.0

     total cpu time spent up to now is       32.8 secs

     total energy              =   -1454.13317671 Ry
     estimated scf accuracy    <       0.08049509 Ry

     iteration #  5     ecut=    70.00 Ry     beta= 0.70
     Davidson diagonalization with overlap
     ethr =  1.92E-04,  avg # of iterations =  5.1

     total cpu time spent up to now is       39.4 secs

     total energy              =   -1454.13220772 Ry
     estimated scf accuracy    <       0.11732690 Ry

     iteration #  6     ecut=    70.00 Ry     beta= 0.70
     Davidson diagonalization with overlap
     ethr =  1.92E-04,  avg # of iterations =  1.1

     total cpu time spent up to now is       44.8 secs

     total energy              =   -1454.10337847 Ry
     estimated scf accuracy    <       0.06350279 Ry

     iteration #  7     ecut=    70.00 Ry     beta= 0.70
     Davidson diagonalization with overlap
     ethr =  1.51E-04,  avg # of iterations =  5.2

     total cpu time spent up to now is       52.4 secs

     total energy              =   -1454.13027621 Ry
     estimated scf accuracy    <       0.00922261 Ry

     iteration #  8     ecut=    70.00 Ry     beta= 0.70
     Davidson diagonalization with overlap
     ethr =  2.20E-05,  avg # of iterations =  6.6

     total cpu time spent up to now is       59.1 secs

     total energy              =   -1454.13277863 Ry
     estimated scf accuracy    <       0.01172734 Ry

     iteration #  9     ecut=    70.00 Ry     beta= 0.70
     Davidson diagonalization with overlap
     ethr =  2.20E-05,  avg # of iterations =  1.3

     total cpu time spent up to now is       64.6 secs

     total energy              =   -1454.13214776 Ry
     estimated scf accuracy    <       0.01025292 Ry

     iteration # 10     ecut=    70.00 Ry     beta= 0.70
     Davidson diagonalization with overlap
     ethr =  2.20E-05,  avg # of iterations =  1.2

     total cpu time spent up to now is       70.1 secs

     total energy              =   -1454.12982461 Ry
     estimated scf accuracy    <       0.00831151 Ry

     iteration # 11     ecut=    70.00 Ry     beta= 0.70
     Davidson diagonalization with overlap
     ethr =  1.98E-05,  avg # of iterations =  1.9

     total cpu time spent up to now is       75.6 secs

     total energy              =   -1454.13059913 Ry
     estimated scf accuracy    <       0.00330008 Ry

     iteration # 12     ecut=    70.00 Ry     beta= 0.70
     Davidson diagonalization with overlap
     ethr =  7.86E-06,  avg # of iterations =  2.3

     total cpu time spent up to now is       81.2 secs

     total energy              =   -1454.13018941 Ry
     estimated scf accuracy    <       0.00324725 Ry

     iteration # 13     ecut=    70.00 Ry     beta= 0.70
     Davidson diagonalization with overlap
     ethr =  7.73E-06,  avg # of iterations =  4.0

     total cpu time spent up to now is       87.3 secs

     total energy              =   -1454.13045852 Ry
     estimated scf accuracy    <       0.00080634 Ry

     iteration # 14     ecut=    70.00 Ry     beta= 0.70
     Davidson diagonalization with overlap
     ethr =  1.92E-06,  avg # of iterations =  6.2

     total cpu time spent up to now is       95.2 secs

     total energy              =   -1454.13101397 Ry
     estimated scf accuracy    <       0.00031529 Ry

     iteration # 15     ecut=    70.00 Ry     beta= 0.70
     Davidson diagonalization with overlap
     ethr =  7.51E-07,  avg # of iterations =  3.1

     total cpu time spent up to now is      101.3 secs

     total energy              =   -1454.13084967 Ry
     estimated scf accuracy    <       0.00031948 Ry

     iteration # 16     ecut=    70.00 Ry     beta= 0.70
     Davidson diagonalization with overlap
