
     Program PWSCF v.7.1 starts on  6May2024 at  4:52: 1 

     This program is part of the open-source Quantum ESPRESSO suite
     for quantum simulation of materials; please cite
         "P. Giannozzi et al., J. Phys.:Condens. Matter 21 395502 (2009);
         "P. Giannozzi et al., J. Phys.:Condens. Matter 29 465901 (2017);
         "P. Giannozzi et al., J. Chem. Phys. 152 154105 (2020);
          URL http://www.quantum-espresso.org", 
     in publications or presentations arising from this work. More details at
     http://www.quantum-espresso.org/quote

     Parallel version (MPI), running on     2 processors

     MPI processes distributed on     1 nodes
     13747 MiB available memory on the printing compute node when the environment starts

     Waiting for input...
     Reading input from standard input
Warning: card &CELL ignored
Warning: card / ignored

     Current dimensions of program PWSCF are:
     Max number of different atomic species (ntypx) = 10
     Max number of k-points (npk) =  40000
     Max angular momentum in pseudopotentials (lmaxx) =  4
     file Ba.pbe-spn-kjpaw_psl.1.0.0.UPF: wavefunction(s)  5S 6S renormalized
     file Bi.pbe-dn-kjpaw_psl.1.0.0.UPF: wavefunction(s)  6P 5D renormalized
     file F.pbe-n-kjpaw_psl.1.0.0.UPF: wavefunction(s)  2S 2P renormalized
     file O.pbe-n-kjpaw_psl.1.0.0.UPF: wavefunction(s)  2S 2P renormalized
     Message from routine setup:
     using ibrav=0 with symmetry is DISCOURAGED, use correct ibrav instead

     R & G space division:  proc/nbgrp/npool/nimage =       2
     Subspace diagonalization in iterative solution of the eigenvalue problem:
     a serial algorithm will be used


     Parallelization info
     --------------------
     sticks:   dense  smooth     PW     G-vecs:    dense   smooth      PW
     Min        1632     808    232                70116    24752    3720
     Max        1633     809    233                70117    24757    3721
     Sum        3265    1617    465               140233    49509    7441

     Using Slab Decomposition



     bravais-lattice index     =            0
     lattice parameter (alat)  =       8.5605  a.u.
     unit-cell volume          =     627.3230 (a.u.)^3
     number of atoms/cell      =            5
     number of atomic types    =            4
     number of electrons       =        44.00
     number of Kohn-Sham states=           22
     kinetic-energy cutoff     =      70.0000  Ry
     charge density cutoff     =     560.0000  Ry
     scf convergence threshold =      1.0E-07
     mixing beta               =       0.7000
     number of iterations used =            8  plain     mixing
     Exchange-correlation= SLA  PW   PBX  PBC
                           (   1   4   3   4   0   0   0)

     celldm(1)=   8.560459  celldm(2)=   0.000000  celldm(3)=   0.000000
     celldm(4)=   0.000000  celldm(5)=   0.000000  celldm(6)=   0.000000

     crystal axes: (cart. coord. in units of alat)
               a(1) = (   1.000000   0.000000   0.000000 )  
               a(2) = (   0.000000   1.000000   0.000000 )  
               a(3) = (   0.000000   0.000000   1.000000 )  

     reciprocal axes: (cart. coord. in units 2 pi/alat)
               b(1) = (  1.000000  0.000000  0.000000 )  
               b(2) = (  0.000000  1.000000  0.000000 )  
               b(3) = (  0.000000  0.000000  1.000000 )  


     PseudoPot. # 1 for Ba read from file:
     /home/bond/Software/qe-7.1/pseudo/Ba.pbe-spn-kjpaw_psl.1.0.0.UPF
     MD5 check sum: 7cfe25f1fe7574a4710541d5a11d6531
     Pseudo is Projector augmented-wave + core cor, Zval = 10.0
     Generated using &quot;atomic&quot; code by A. Dal Corso  v.6.2.2
     Shape of augmentation charge: PSQ
     Using radial grid of 1251 points,  7 beta functions with: 
                l(1) =   0
                l(2) =   0
                l(3) =   0
                l(4) =   1
                l(5) =   1
                l(6) =   2
                l(7) =   2
     Q(r) pseudized with 0 coefficients 


     PseudoPot. # 2 for Bi read from file:
     /home/bond/Software/qe-7.1/pseudo/Bi.pbe-dn-kjpaw_psl.1.0.0.UPF
     MD5 check sum: 266ded784ae3bc462508ed03f0f37963
     Pseudo is Projector augmented-wave + core cor, Zval = 15.0
     Generated using &quot;atomic&quot; code by A. Dal Corso  v.6.2.2
     Shape of augmentation charge: PSQ
     Using radial grid of 1283 points,  6 beta functions with: 
                l(1) =   0
                l(2) =   0
                l(3) =   1
                l(4) =   1
                l(5) =   2
                l(6) =   2
     Q(r) pseudized with 0 coefficients 


     PseudoPot. # 3 for F  read from file:
     /home/bond/Software/qe-7.1/pseudo/F.pbe-n-kjpaw_psl.1.0.0.UPF
     MD5 check sum: 66d718ea72839a4268ab2a9540e8cdd4
     Pseudo is Projector augmented-wave + core cor, Zval =  7.0
     Generated using &quot;atomic&quot; code by A. Dal Corso  v.6.3
     Shape of augmentation charge: PSQ
     Using radial grid of 1105 points,  4 beta functions with: 
                l(1) =   0
                l(2) =   0
                l(3) =   1
                l(4) =   1
     Q(r) pseudized with 0 coefficients 


     PseudoPot. # 4 for O  read from file:
     /home/bond/Software/qe-7.1/pseudo/O.pbe-n-kjpaw_psl.1.0.0.UPF
     MD5 check sum: e99d9cef9b487d1ca56f5b95ecd0fd7a
     Pseudo is Projector augmented-wave + core cor, Zval =  6.0
     Generated using &quot;atomic&quot; code by A. Dal Corso  v.6.3
     Shape of augmentation charge: PSQ
     Using radial grid of 1095 points,  4 beta functions with: 
                l(1) =   0
                l(2) =   0
                l(3) =   1
                l(4) =   1
     Q(r) pseudized with 0 coefficients 


     atomic species   valence    mass     pseudopotential
        Ba            10.00   137.32700     Ba( 1.00)
        Bi            15.00   208.98040     Bi( 1.00)
        F              7.00    18.99840     F ( 1.00)
        O              6.00    15.99900     O ( 1.00)

     16 Sym. Ops., with inversion, found



   Cartesian axes

     site n.     atom                  positions (alat units)
         1           Ba  tau(   1) = (   0.5000000   0.5000000   0.5000000  )
         2           Bi  tau(   2) = (   0.0000000   0.0000000   0.0000000  )
         3           O   tau(   3) = (   0.0000000   0.0000000   0.5000000  )
         4           O   tau(   4) = (   0.5000000   0.0000000   0.0000000  )
         5           F   tau(   5) = (   0.0000000   0.5000000   0.0000000  )

     number of k points=    18
                       cart. coord. in units 2pi/alat
        k(    1) = (   0.0000000   0.0000000   0.0000000), wk =   0.0160000
        k(    2) = (   0.0000000   0.0000000   0.2000000), wk =   0.0640000
        k(    3) = (   0.0000000   0.0000000   0.4000000), wk =   0.0640000
        k(    4) = (   0.0000000   0.2000000   0.2000000), wk =   0.1280000
        k(    5) = (   0.0000000   0.2000000   0.4000000), wk =   0.1280000
        k(    6) = (   0.0000000   0.4000000   0.4000000), wk =   0.1280000
        k(    7) = (   0.2000000   0.2000000   0.2000000), wk =   0.1280000
        k(    8) = (   0.2000000   0.2000000   0.4000000), wk =   0.2560000
        k(    9) = (   0.2000000   0.4000000   0.4000000), wk =   0.2560000
        k(   10) = (   0.4000000   0.4000000   0.4000000), wk =   0.1280000
        k(   11) = (   0.0000000   0.2000000   0.0000000), wk =   0.0320000
        k(   12) = (   0.0000000   0.4000000   0.0000000), wk =   0.0320000
        k(   13) = (   0.2000000   0.0000000   0.2000000), wk =   0.0640000
        k(   14) = (   0.2000000   0.4000000   0.0000000), wk =   0.1280000
        k(   15) = (   0.4000000   0.0000000   0.2000000), wk =   0.1280000
        k(   16) = (   0.4000000   0.0000000   0.4000000), wk =   0.0640000
        k(   17) = (   0.2000000   0.4000000   0.2000000), wk =   0.1280000
        k(   18) = (   0.4000000   0.2000000   0.4000000), wk =   0.1280000

     Dense  grid:   140233 G-vectors     FFT dimensions: (  72,  72,  72)

     Smooth grid:    49509 G-vectors     FFT dimensions: (  45,  45,  45)

     Estimated max dynamical RAM per process >     316.21 MB

     Estimated total dynamical RAM >     632.43 MB

     Initial potential from superposition of free atoms

     starting charge      43.9822, renormalised to      44.0000
     Starting wfcs are   26 randomized atomic wfcs
     Checking if some PAW data can be deallocated... 

     total cpu time spent up to now is        7.0 secs

     Self-consistent Calculation

     iteration #  1     ecut=    70.00 Ry     beta= 0.70
     Davidson diagonalization with overlap
     ethr =  1.00E-02,  avg # of iterations =  1.1

     total cpu time spent up to now is       13.1 secs

     total energy              =   -1484.43033389 Ry
     estimated scf accuracy    <       1.77840379 Ry

     iteration #  2     ecut=    70.00 Ry     beta= 0.70
     Davidson diagonalization with overlap
     ethr =  4.04E-03,  avg # of iterations =  8.4

     total cpu time spent up to now is       22.6 secs

     total energy              =   -1484.39890839 Ry
     estimated scf accuracy    <       6.75840570 Ry

     iteration #  3     ecut=    70.00 Ry     beta= 0.70
     Davidson diagonalization with overlap
     ethr =  4.04E-03,  avg # of iterations =  6.2

     total cpu time spent up to now is       30.9 secs

     total energy              =   -1485.44038259 Ry
     estimated scf accuracy    <       0.11554598 Ry

     iteration #  4     ecut=    70.00 Ry     beta= 0.70
     Davidson diagonalization with overlap
     ethr =  2.63E-04,  avg # of iterations =  6.7

     total cpu time spent up to now is       39.6 secs

     total energy              =   -1485.53888587 Ry
     estimated scf accuracy    <       0.03122293 Ry

     iteration #  5     ecut=    70.00 Ry     beta= 0.70
     Davidson diagonalization with overlap
     ethr =  7.10E-05,  avg # of iterations =  3.4

     total cpu time spent up to now is       46.5 secs

     total energy              =   -1485.53874592 Ry
     estimated scf accuracy    <       0.00828532 Ry

     iteration #  6     ecut=    70.00 Ry     beta= 0.70
     Davidson diagonalization with overlap
     ethr =  1.88E-05,  avg # of iterations =  6.3

     total cpu time spent up to now is       55.4 secs

     total energy              =   -1485.54268133 Ry
     estimated scf accuracy    <       0.00525468 Ry

     iteration #  7     ecut=    70.00 Ry     beta= 0.70
     Davidson diagonalization with overlap
     ethr =  1.19E-05,  avg # of iterations =  3.2

     total cpu time spent up to now is       62.6 secs

     total energy              =   -1485.54292216 Ry
     estimated scf accuracy    <       0.00081514 Ry

     iteration #  8     ecut=    70.00 Ry     beta= 0.70
     Davidson diagonalization with overlap
     ethr =  1.85E-06,  avg # of iterations =  6.7

     total cpu time spent up to now is       71.2 secs

     total energy              =   -1485.54398957 Ry
     estimated scf accuracy    <       0.00102450 Ry

     iteration #  9     ecut=    70.00 Ry     beta= 0.70
     Davidson diagonalization with overlap
     ethr =  1.85E-06,  avg # of iterations =  1.2

     total cpu time spent up to now is       77.4 secs

     total energy              =   -1485.54398053 Ry
     estimated scf accuracy    <       0.00109753 Ry

     iteration # 10     ecut=    70.00 Ry     beta= 0.70
     Davidson diagonalization with overlap
     ethr =  1.85E-06,  avg # of iterations =  1.1

     total cpu time spent up to now is       83.6 secs

     total energy              =   -1485.54427309 Ry
     estimated scf accuracy    <       0.00110688 Ry

     iteration # 11     ecut=    70.00 Ry     beta= 0.70
     Davidson diagonalization with overlap
     ethr =  1.85E-06,  avg # of iterations =  3.1

     total cpu time spent up to now is       90.7 secs

     total energy              =   -1485.54402253 Ry
     estimated scf accuracy    <       0.00216193 Ry

     iteration # 12     ecut=    70.00 Ry     beta= 0.70
     Davidson diagonalization with overlap
     ethr =  1.85E-06,  avg # of iterations =  1.3

     total cpu time spent up to now is       97.7 secs

     total energy              =   -1485.54381209 Ry
     estimated scf accuracy    <       0.00169812 Ry

     iteration # 13     ecut=    70.00 Ry     beta= 0.70
     Davidson diagonalization with overlap
     ethr =  1.85E-06,  avg # of iterations =  2.0

     total cpu time spent up to now is      104.6 secs

     total energy              =   -1485.54377383 Ry
     estimated scf accuracy    <       0.00106381 Ry

     iteration # 14     ecut=    70.00 Ry     beta= 0.70
     Davidson diagonalization with overlap
     ethr =  1.85E-06,  avg # of iterations =  1.1

     total cpu time spent up to now is      111.6 secs

     total energy              =   -1485.54368590 Ry
     estimated scf accuracy    <       0.00086131 Ry

     iteration # 15     ecut=    70.00 Ry     beta= 0.70
     Davidson diagonalization with overlap
     ethr =  1.85E-06,  avg # of iterations =  1.5

     total cpu time spent up to now is      118.5 secs

     total energy              =   -1485.54355882 Ry
     estimated scf accuracy    <       0.00057503 Ry

     iteration # 16     ecut=    70.00 Ry     beta= 0.70
     Davidson diagonalization with overlap
     ethr =  1.31E-06,  avg # of iterations =  4.2

     total cpu time spent up to now is      126.2 secs

     total energy              =   -1485.54365217 Ry
     estimated scf accuracy    <       0.00003710 Ry

     iteration # 17     ecut=    70.00 Ry     beta= 0.70
     Davidson diagonalization with overlap
     ethr =  8.43E-08,  avg # of iterations =  8.7

     total cpu time spent up to now is      136.8 secs

     total energy              =   -1485.54382831 Ry
     estimated scf accuracy    <       0.00019511 Ry

     iteration # 18     ecut=    70.00 Ry     beta= 0.70
     Davidson diagonalization with overlap
     ethr =  8.43E-08,  avg # of iterations =  5.6

     total cpu time spent up to now is      146.1 secs

     total energy              =   -1485.54373417 Ry
     estimated scf accuracy    <       0.00059507 Ry

     iteration # 19     ecut=    70.00 Ry     beta= 0.70
     Davidson diagonalization with overlap
     ethr =  8.43E-08,  avg # of iterations =  5.2

     total cpu time spent up to now is      155.2 secs

     total energy              =   -1485.54377700 Ry
     estimated scf accuracy    <       0.00019989 Ry

     iteration # 20     ecut=    70.00 Ry     beta= 0.70
     Davidson diagonalization with overlap
     ethr =  8.43E-08,  avg # of iterations =  1.0

     total cpu time spent up to now is      162.1 secs

     total energy              =   -1485.54378351 Ry
     estimated scf accuracy    <       0.00023910 Ry

     iteration # 21     ecut=    70.00 Ry     beta= 0.70
     Davidson diagonalization with overlap
     ethr =  8.43E-08,  avg # of iterations =  1.0

     total cpu time spent up to now is      169.0 secs

     total energy              =   -1485.54375565 Ry
     estimated scf accuracy    <       0.00026412 Ry

     iteration # 22     ecut=    70.00 Ry     beta= 0.70
     Davidson diagonalization with overlap
     ethr =  8.43E-08,  avg # of iterations =  1.4

     total cpu time spent up to now is      176.3 secs

     total energy              =   -1485.54376602 Ry
     estimated scf accuracy    <       0.00020498 Ry

     iteration # 23     ecut=    70.00 Ry     beta= 0.70
     Davidson diagonalization with overlap
     ethr =  8.43E-08,  avg # of iterations =  1.0

     total cpu time spent up to now is      183.2 secs

     total energy              =   -1485.54363183 Ry
     estimated scf accuracy    <       0.00021875 Ry

     iteration # 24     ecut=    70.00 Ry     beta= 0.70
     Davidson diagonalization with overlap
     ethr =  8.43E-08,  avg # of iterations =  9.3

     total cpu time spent up to now is      194.6 secs

     total energy              =   -1485.54373916 Ry
     estimated scf accuracy    <       0.00013951 Ry

     iteration # 25     ecut=    70.00 Ry     beta= 0.70
     Davidson diagonalization with overlap
     ethr =  8.43E-08,  avg # of iterations =  1.3

     total cpu time spent up to now is      201.4 secs

     total energy              =   -1485.54369102 Ry
     estimated scf accuracy    <       0.00011874 Ry

     iteration # 26     ecut=    70.00 Ry     beta= 0.70
     Davidson diagonalization with overlap
     ethr =  8.43E-08,  avg # of iterations =  5.8

     total cpu time spent up to now is      211.0 secs

     total energy              =   -1485.54371762 Ry
     estimated scf accuracy    <       0.00000128 Ry

     iteration # 27     ecut=    70.00 Ry     beta= 0.70
     Davidson diagonalization with overlap
     ethr =  2.91E-09,  avg # of iterations =  6.0

     total cpu time spent up to now is      219.9 secs

     total energy              =   -1485.54371816 Ry
     estimated scf accuracy    <       0.00000037 Ry

     iteration # 28     ecut=    70.00 Ry     beta= 0.70
     Davidson diagonalization with overlap
     ethr =  8.32E-10,  avg # of iterations =  4.3

     total cpu time spent up to now is      227.9 secs

     End of self-consistent calculation

          k = 0.0000 0.0000 0.0000 (  6187 PWs)   bands (ev):

   -18.6433 -15.7096 -13.0443 -12.9683 -12.9683 -12.7716 -12.6918  -7.9657
    -6.6193  -3.7817  -3.7817  -3.5879   1.4795   2.0035   3.0866   3.0866
     4.8481   4.8481   7.0744   7.4566   7.7447   7.7447

          k = 0.0000 0.0000 0.2000 (  6203 PWs)   bands (ev):

   -18.6360 -15.7147 -13.0136 -12.9705 -12.9682 -12.7738 -12.6739  -7.8982
    -6.8167  -3.7683  -3.7621  -3.5697   1.1108   1.4775   3.0208   3.2331
     4.9092   5.9831   7.0353   7.3789   7.6695   7.7401

          k = 0.0000 0.0000 0.4000 (  6198 PWs)   bands (ev):

   -18.6240 -15.7229 -12.9740 -12.9707 -12.9680 -12.7774 -12.6348  -7.6693
    -7.2575  -3.7522  -3.7299  -3.5399   0.3521   1.4731   2.9144   3.1766
     5.0168   6.7213   6.9033   7.3453   7.5430   8.9371

          k = 0.0000 0.2000 0.2000 (  6208 PWs)   bands (ev):

   -18.6312 -15.5960 -13.0144 -12.9730 -12.9709 -12.8296 -12.7737  -7.9862
    -6.8092  -3.7835  -3.7483  -3.5461   0.0703   2.9690   3.1378   3.3240
     4.7546   5.8890   6.9102   7.2303   7.5567   7.7679

          k = 0.0000 0.2000 0.4000 (  6226 PWs)   bands (ev):

   -18.6199 -15.6043 -12.9789 -12.9762 -12.9707 -12.7867 -12.7772  -7.7129
    -7.2618  -3.8015  -3.7197  -3.5544  -0.4774   2.8329   3.0404   3.1917
     4.8847   6.7213   7.0263   7.2245   7.4018   9.0233

          k = 0.0000 0.4000 0.4000 (  6198 PWs)   bands (ev):

   -18.6131 -15.3775 -13.1203 -12.9797 -12.9749 -12.9406 -12.7769  -7.7805
    -7.2678  -3.8749  -3.7030  -3.5825  -1.0544   3.2097   3.2966   4.4523
     4.6175   6.7184   7.0773   7.1183   7.1919   9.2771

          k = 0.2000 0.2000 0.2000 (  6202 PWs)   bands (ev):

   -18.6251 -15.5987 -12.9779 -12.9731 -12.9728 -12.8180 -12.7757  -7.9158
    -6.9606  -3.7909  -3.7698  -3.5434  -0.4229   2.7220   3.2464   3.3286
     5.4454   6.2181   7.0055   7.1980   7.6445   7.8574

          k = 0.2000 0.2000 0.4000 (  6201 PWs)   bands (ev):

   -18.6153 -15.6032 -12.9763 -12.9729 -12.9320 -12.7834 -12.7790  -7.6916
    -7.3236  -3.8185  -3.7733  -3.5558  -1.0193   2.6341   3.2325   3.3107
     5.8895   6.5592   7.0025   7.1811   7.8040   9.1321

          k = 0.2000 0.4000 0.4000 (  6187 PWs)   bands (ev):

   -18.6087 -15.3762 -13.0989 -12.9802 -12.9772 -12.9154 -12.7791  -7.7323
    -7.3091  -3.8909  -3.7879  -3.6191  -1.5788   3.2690   3.3922   4.1581
     5.8256   6.7579   6.9811   7.1909   7.6962   9.3786

          k = 0.4000 0.4000 0.4000 (  6166 PWs)   bands (ev):

   -18.6015 -15.3741 -13.0750 -12.9812 -12.9808 -12.8614 -12.7828  -7.6003
    -7.4329  -3.9201  -3.9078  -3.6859  -2.2516   3.4017   3.4698   4.1016
     6.7310   7.2045   7.2354   7.3675   8.2021  10.0484

          k = 0.0000 0.2000 0.0000 (  6203 PWs)   bands (ev):

   -18.6382 -15.5909 -13.0441 -12.9710 -12.9710 -12.8467 -12.7715  -8.0727
    -6.6153  -3.7657  -3.7657  -3.5498   0.5224   3.1976   3.1976   3.5125
     4.6826   4.6826   6.7808   7.2346   7.6461   7.6461

          k = 0.0000 0.4000 0.0000 (  6198 PWs)   bands (ev):

   -18.6298 -15.3636 -13.1351 -13.0436 -12.9754 -12.9754 -12.7713  -8.2333
    -6.6089  -3.7396  -3.7396  -3.4979  -0.0233   3.4456   3.4456   4.3479
     4.3479   5.2486   6.2209   6.9332   7.5052   7.5052

          k = 0.2000 0.0000 0.2000 (  6208 PWs)   bands (ev):

   -18.6296 -15.7174 -12.9781 -12.9704 -12.9703 -12.7758 -12.6592  -7.8467
    -6.9743  -3.7801  -3.7472  -3.5541   0.3746   1.4848   3.1620   3.2553
     5.5695   6.2921   7.0318   7.2637   7.5893   7.8957

          k = 0.2000 0.4000 0.0000 (  6226 PWs)   bands (ev):

   -18.6235 -15.3689 -13.1266 -13.0079 -12.9771 -12.9752 -12.7735  -8.1197
    -6.7968  -3.7937  -3.7257  -3.5298  -0.4984   3.3616   3.3889   4.4054
     4.4428   5.9741   6.5660   7.0331   7.3934   7.8368

          k = 0.4000 0.0000 0.2000 (  6226 PWs)   bands (ev):

   -18.6193 -15.7220 -12.9739 -12.9702 -12.9275 -12.7790 -12.6256  -7.6658
    -7.3322  -3.7749  -3.7503  -3.5285  -0.3565   1.4960   3.1643   3.2667
     5.9572   6.4665   6.9269   7.1988   7.8411   9.0628

          k = 0.4000 0.0000 0.4000 (  6198 PWs)   bands (ev):

   -18.6116 -15.7204 -12.9736 -12.9736 -12.8617 -12.7817 -12.6028  -7.6236
    -7.4962  -3.8026  -3.7900  -3.5099  -1.1190   1.5333   3.3326   3.3889
     6.1607   6.9587   6.9883   7.2955   8.1973   9.9124

          k = 0.2000 0.4000 0.2000 (  6201 PWs)   bands (ev):

   -18.6178 -15.3716 -13.1119 -12.9778 -12.9773 -12.9767 -12.7757  -8.0217
    -6.9381  -3.8088  -3.7750  -3.5629  -0.9856   3.2730   3.4605   4.1756
     5.2479   6.2696   6.7688   7.1160   7.7451   7.8391

          k = 0.4000 0.2000 0.4000 (  6187 PWs)   bands (ev):

   -18.6078 -15.6015 -12.9765 -12.9764 -12.8616 -12.7821 -12.7695  -7.6149
    -7.4724  -3.8472  -3.8384  -3.5752  -1.6911   2.5846   3.3634   3.4195
     6.3675   7.0674   7.0823   7.3164   8.2080   9.9308

     highest occupied level (ev):    10.0484

!    total energy              =   -1485.54371816 Ry
     total all-electron energy =    -59834.201332 Ry
     estimated scf accuracy    <       0.00000007 Ry

     The total energy is the sum of the following terms:
     one-electron contribution =    -106.82822603 Ry
     hartree contribution      =      85.13882896 Ry
     xc contribution           =     -77.44658266 Ry
     ewald contribution        =    -224.50433474 Ry
     one-center paw contrib.   =   -1161.90340369 Ry

     convergence has been achieved in  28 iterations

     Forces acting on atoms (cartesian axes, Ry/au):

     atom    1 type  1   force =     0.00000000    0.00000000    0.00000000
     atom    2 type  2   force =     0.00000000    0.00000000    0.00000000
     atom    3 type  4   force =     0.00000000    0.00000000    0.00000000
     atom    4 type  4   force =     0.00000000    0.00000000    0.00000000
     atom    5 type  3   force =     0.00000000    0.00000000    0.00000000

     Total force =     0.000000     Total SCF correction =     0.000000


     Computing stress (Cartesian axis) and pressure

          total   stress  (Ry/bohr**3)                   (kbar)     P=       43.24
   0.00031416   0.00000000   0.00000000           46.21        0.00        0.00
   0.00000000   0.00025350   0.00000000            0.00       37.29        0.00
   0.00000000   0.00000000   0.00031416            0.00        0.00       46.21


     init_run     :      4.92s CPU      5.75s WALL (       1 calls)
     electrons    :    183.73s CPU    220.93s WALL (       1 calls)
     forces       :      1.60s CPU      2.18s WALL (       1 calls)
     stress       :      8.69s CPU     10.92s WALL (       1 calls)

     Called by init_run:
     wfcinit      :      1.67s CPU      1.88s WALL (       1 calls)
     potinit      :      0.92s CPU      1.04s WALL (       1 calls)
     hinit0       :      1.72s CPU      1.92s WALL (       1 calls)

     Called by electrons:
     c_bands      :    112.02s CPU    126.38s WALL (      28 calls)
     sum_band     :     35.94s CPU     47.25s WALL (      28 calls)
     v_of_rho     :      4.68s CPU      5.32s WALL (      29 calls)
     newd         :     15.68s CPU     24.84s WALL (      29 calls)
     PAW_pot      :     15.34s CPU     17.19s WALL (      29 calls)
     mix_rho      :      0.79s CPU      0.91s WALL (      28 calls)

     Called by c_bands:
     init_us_2    :      3.17s CPU      3.55s WALL (    1062 calls)
     init_us_2:cp :      3.16s CPU      3.54s WALL (    1062 calls)
     cegterg      :    105.14s CPU    118.61s WALL (     504 calls)

     Called by *egterg:
     cdiaghg      :      2.30s CPU      2.50s WALL (    2451 calls)
     h_psi        :     84.99s CPU     95.78s WALL (    2469 calls)
     s_psi        :      4.22s CPU      4.80s WALL (    2469 calls)
     g_psi        :      0.50s CPU      0.56s WALL (    1947 calls)

     Called by h_psi:
     h_psi:calbec :      4.94s CPU      5.63s WALL (    2469 calls)
     vloc_psi     :     75.08s CPU     84.70s WALL (    2469 calls)
     add_vuspsi   :      4.52s CPU      4.96s WALL (    2469 calls)

     General routines
     calbec       :      6.71s CPU      7.72s WALL (    3063 calls)
     fft          :      3.12s CPU      3.55s WALL (     400 calls)
     ffts         :      0.20s CPU      0.22s WALL (      57 calls)
     fftw         :     80.29s CPU     91.00s WALL (   70592 calls)
     interpolate  :      0.39s CPU      0.44s WALL (      29 calls)

     Parallel routines

     PWSCF        :   3m20.06s CPU   4m 1.05s WALL


   This run was terminated on:   4:56: 2   6May2024            

=------------------------------------------------------------------------------=
   JOB DONE.
=------------------------------------------------------------------------------=
