
     Program PWSCF v.7.1 starts on  6May2024 at  4:24:42 

     This program is part of the open-source Quantum ESPRESSO suite
     for quantum simulation of materials; please cite
         "P. Giannozzi et al., J. Phys.:Condens. Matter 21 395502 (2009);
         "P. Giannozzi et al., J. Phys.:Condens. Matter 29 465901 (2017);
         "P. Giannozzi et al., J. Chem. Phys. 152 154105 (2020);
          URL http://www.quantum-espresso.org", 
     in publications or presentations arising from this work. More details at
     http://www.quantum-espresso.org/quote

     Parallel version (MPI), running on     2 processors

     MPI processes distributed on     1 nodes
     13558 MiB available memory on the printing compute node when the environment starts

     Waiting for input...
     Reading input from standard input
Warning: card &CELL ignored
Warning: card / ignored

     Current dimensions of program PWSCF are:
     Max number of different atomic species (ntypx) = 10
     Max number of k-points (npk) =  40000
     Max angular momentum in pseudopotentials (lmaxx) =  4
     file Ba.pbe-spn-kjpaw_psl.1.0.0.UPF: wavefunction(s)  5S 6S renormalized
     file Bi.pbe-dn-kjpaw_psl.1.0.0.UPF: wavefunction(s)  6P 5D renormalized
     file F.pbe-n-kjpaw_psl.1.0.0.UPF: wavefunction(s)  2S 2P renormalized
     file O.pbe-n-kjpaw_psl.1.0.0.UPF: wavefunction(s)  2S 2P renormalized
     Message from routine setup:
     using ibrav=0 with symmetry is DISCOURAGED, use correct ibrav instead

     R & G space division:  proc/nbgrp/npool/nimage =       2
     Subspace diagonalization in iterative solution of the eigenvalue problem:
     a serial algorithm will be used


     Parallelization info
     --------------------
     sticks:   dense  smooth     PW     G-vecs:    dense   smooth      PW
     Min        1566     782    218                66153    23374    3488
     Max        1567     783    219                66154    23379    3491
     Sum        3133    1565    437               132307    46753    6979

     Using Slab Decomposition



     bravais-lattice index     =            0
     lattice parameter (alat)  =       8.3904  a.u.
     unit-cell volume          =     590.6708 (a.u.)^3
     number of atoms/cell      =            5
     number of atomic types    =            4
     number of electrons       =        44.00
     number of Kohn-Sham states=           22
     kinetic-energy cutoff     =      70.0000  Ry
     charge density cutoff     =     560.0000  Ry
     scf convergence threshold =      1.0E-07
     mixing beta               =       0.7000
     number of iterations used =            8  plain     mixing
     Exchange-correlation= SLA  PW   PBX  PBC
                           (   1   4   3   4   0   0   0)

     celldm(1)=   8.390384  celldm(2)=   0.000000  celldm(3)=   0.000000
     celldm(4)=   0.000000  celldm(5)=   0.000000  celldm(6)=   0.000000

     crystal axes: (cart. coord. in units of alat)
               a(1) = (   1.000000   0.000000   0.000000 )  
               a(2) = (   0.000000   1.000000   0.000000 )  
               a(3) = (   0.000000   0.000000   1.000000 )  

     reciprocal axes: (cart. coord. in units 2 pi/alat)
               b(1) = (  1.000000  0.000000  0.000000 )  
               b(2) = (  0.000000  1.000000  0.000000 )  
               b(3) = (  0.000000  0.000000  1.000000 )  


     PseudoPot. # 1 for Ba read from file:
     /home/bond/Software/qe-7.1/pseudo/Ba.pbe-spn-kjpaw_psl.1.0.0.UPF
     MD5 check sum: 7cfe25f1fe7574a4710541d5a11d6531
     Pseudo is Projector augmented-wave + core cor, Zval = 10.0
     Generated using &quot;atomic&quot; code by A. Dal Corso  v.6.2.2
     Shape of augmentation charge: PSQ
     Using radial grid of 1251 points,  7 beta functions with: 
                l(1) =   0
                l(2) =   0
                l(3) =   0
                l(4) =   1
                l(5) =   1
                l(6) =   2
                l(7) =   2
     Q(r) pseudized with 0 coefficients 


     PseudoPot. # 2 for Bi read from file:
     /home/bond/Software/qe-7.1/pseudo/Bi.pbe-dn-kjpaw_psl.1.0.0.UPF
     MD5 check sum: 266ded784ae3bc462508ed03f0f37963
     Pseudo is Projector augmented-wave + core cor, Zval = 15.0
     Generated using &quot;atomic&quot; code by A. Dal Corso  v.6.2.2
     Shape of augmentation charge: PSQ
     Using radial grid of 1283 points,  6 beta functions with: 
                l(1) =   0
                l(2) =   0
                l(3) =   1
                l(4) =   1
                l(5) =   2
                l(6) =   2
     Q(r) pseudized with 0 coefficients 


     PseudoPot. # 3 for F  read from file:
     /home/bond/Software/qe-7.1/pseudo/F.pbe-n-kjpaw_psl.1.0.0.UPF
     MD5 check sum: 66d718ea72839a4268ab2a9540e8cdd4
     Pseudo is Projector augmented-wave + core cor, Zval =  7.0
     Generated using &quot;atomic&quot; code by A. Dal Corso  v.6.3
     Shape of augmentation charge: PSQ
     Using radial grid of 1105 points,  4 beta functions with: 
                l(1) =   0
                l(2) =   0
                l(3) =   1
                l(4) =   1
     Q(r) pseudized with 0 coefficients 


     PseudoPot. # 4 for O  read from file:
     /home/bond/Software/qe-7.1/pseudo/O.pbe-n-kjpaw_psl.1.0.0.UPF
     MD5 check sum: e99d9cef9b487d1ca56f5b95ecd0fd7a
     Pseudo is Projector augmented-wave + core cor, Zval =  6.0
     Generated using &quot;atomic&quot; code by A. Dal Corso  v.6.3
     Shape of augmentation charge: PSQ
     Using radial grid of 1095 points,  4 beta functions with: 
                l(1) =   0
                l(2) =   0
                l(3) =   1
                l(4) =   1
     Q(r) pseudized with 0 coefficients 


     atomic species   valence    mass     pseudopotential
        Ba            10.00   137.32700     Ba( 1.00)
        Bi            15.00   208.98040     Bi( 1.00)
        F              7.00    18.99840     F ( 1.00)
        O              6.00    15.99900     O ( 1.00)

     16 Sym. Ops., with inversion, found



   Cartesian axes

     site n.     atom                  positions (alat units)
         1           Ba  tau(   1) = (   0.5000000   0.5000000   0.5000000  )
         2           Bi  tau(   2) = (   0.0000000   0.0000000   0.0000000  )
         3           O   tau(   3) = (   0.0000000   0.0000000   0.5000000  )
         4           O   tau(   4) = (   0.5000000   0.0000000   0.0000000  )
         5           F   tau(   5) = (   0.0000000   0.5000000   0.0000000  )

     number of k points=    18
                       cart. coord. in units 2pi/alat
        k(    1) = (   0.0000000   0.0000000   0.0000000), wk =   0.0160000
        k(    2) = (   0.0000000   0.0000000   0.2000000), wk =   0.0640000
        k(    3) = (   0.0000000   0.0000000   0.4000000), wk =   0.0640000
        k(    4) = (   0.0000000   0.2000000   0.2000000), wk =   0.1280000
        k(    5) = (   0.0000000   0.2000000   0.4000000), wk =   0.1280000
        k(    6) = (   0.0000000   0.4000000   0.4000000), wk =   0.1280000
        k(    7) = (   0.2000000   0.2000000   0.2000000), wk =   0.1280000
        k(    8) = (   0.2000000   0.2000000   0.4000000), wk =   0.2560000
        k(    9) = (   0.2000000   0.4000000   0.4000000), wk =   0.2560000
        k(   10) = (   0.4000000   0.4000000   0.4000000), wk =   0.1280000
        k(   11) = (   0.0000000   0.2000000   0.0000000), wk =   0.0320000
        k(   12) = (   0.0000000   0.4000000   0.0000000), wk =   0.0320000
        k(   13) = (   0.2000000   0.0000000   0.2000000), wk =   0.0640000
        k(   14) = (   0.2000000   0.4000000   0.0000000), wk =   0.1280000
        k(   15) = (   0.4000000   0.0000000   0.2000000), wk =   0.1280000
        k(   16) = (   0.4000000   0.0000000   0.4000000), wk =   0.0640000
        k(   17) = (   0.2000000   0.4000000   0.2000000), wk =   0.1280000
        k(   18) = (   0.4000000   0.2000000   0.4000000), wk =   0.1280000

     Dense  grid:   132307 G-vectors     FFT dimensions: (  64,  64,  64)

     Smooth grid:    46753 G-vectors     FFT dimensions: (  45,  45,  45)

     Estimated max dynamical RAM per process >     295.79 MB

     Estimated total dynamical RAM >     591.57 MB

     Initial potential from superposition of free atoms

     starting charge      43.9822, renormalised to      44.0000
     Starting wfcs are   26 randomized atomic wfcs
     Checking if some PAW data can be deallocated... 

     total cpu time spent up to now is        6.3 secs

     Self-consistent Calculation

     iteration #  1     ecut=    70.00 Ry     beta= 0.70
     Davidson diagonalization with overlap
     ethr =  1.00E-02,  avg # of iterations =  1.3

     total cpu time spent up to now is       11.9 secs

     total energy              =   -1484.43715300 Ry
     estimated scf accuracy    <       1.72877014 Ry

     iteration #  2     ecut=    70.00 Ry     beta= 0.70
     Davidson diagonalization with overlap
     ethr =  3.93E-03,  avg # of iterations =  8.6

     total cpu time spent up to now is       20.8 secs

     total energy              =   -1484.52505227 Ry
     estimated scf accuracy    <       5.86401092 Ry

     iteration #  3     ecut=    70.00 Ry     beta= 0.70
     Davidson diagonalization with overlap
     ethr =  3.93E-03,  avg # of iterations =  6.2

     total cpu time spent up to now is       28.3 secs

     total energy              =   -1485.42052425 Ry
     estimated scf accuracy    <       0.10477250 Ry

     iteration #  4     ecut=    70.00 Ry     beta= 0.70
     Davidson diagonalization with overlap
     ethr =  2.38E-04,  avg # of iterations =  6.6

     total cpu time spent up to now is       36.0 secs

     total energy              =   -1485.51993264 Ry
     estimated scf accuracy    <       0.02583069 Ry

     iteration #  5     ecut=    70.00 Ry     beta= 0.70
     Davidson diagonalization with overlap
     ethr =  5.87E-05,  avg # of iterations =  3.0

     total cpu time spent up to now is       42.4 secs

     total energy              =   -1485.51957676 Ry
     estimated scf accuracy    <       0.00710072 Ry

     iteration #  6     ecut=    70.00 Ry     beta= 0.70
     Davidson diagonalization with overlap
     ethr =  1.61E-05,  avg # of iterations =  6.2

     total cpu time spent up to now is       50.7 secs

     total energy              =   -1485.52312734 Ry
     estimated scf accuracy    <       0.00440349 Ry

     iteration #  7     ecut=    70.00 Ry     beta= 0.70
     Davidson diagonalization with overlap
     ethr =  1.00E-05,  avg # of iterations =  2.1

     total cpu time spent up to now is       57.0 secs

     total energy              =   -1485.52292475 Ry
     estimated scf accuracy    <       0.00107222 Ry

     iteration #  8     ecut=    70.00 Ry     beta= 0.70
     Davidson diagonalization with overlap
     ethr =  2.44E-06,  avg # of iterations =  6.6

     total cpu time spent up to now is       65.2 secs

     total energy              =   -1485.52453058 Ry
     estimated scf accuracy    <       0.00159567 Ry

     iteration #  9     ecut=    70.00 Ry     beta= 0.70
     Davidson diagonalization with overlap
     ethr =  2.44E-06,  avg # of iterations =  1.9

     total cpu time spent up to now is       71.1 secs

     total energy              =   -1485.52430372 Ry
     estimated scf accuracy    <       0.00242661 Ry

     iteration # 10     ecut=    70.00 Ry     beta= 0.70
     Davidson diagonalization with overlap
     ethr =  2.44E-06,  avg # of iterations =  1.2

     total cpu time spent up to now is       76.8 secs

     total energy              =   -1485.52360153 Ry
     estimated scf accuracy    <       0.00200844 Ry

     iteration # 11     ecut=    70.00 Ry     beta= 0.70
     Davidson diagonalization with overlap
     ethr =  2.44E-06,  avg # of iterations =  4.6

     total cpu time spent up to now is       83.6 secs

     total energy              =   -1485.52375433 Ry
     estimated scf accuracy    <       0.00030534 Ry

     iteration # 12     ecut=    70.00 Ry     beta= 0.70
     Davidson diagonalization with overlap
     ethr =  6.94E-07,  avg # of iterations =  5.4

     total cpu time spent up to now is       90.9 secs

     total energy              =   -1485.52388628 Ry
     estimated scf accuracy    <       0.00000691 Ry

     iteration # 13     ecut=    70.00 Ry     beta= 0.70
     Davidson diagonalization with overlap
     ethr =  1.57E-08,  avg # of iterations =  6.5

     total cpu time spent up to now is       99.2 secs

     total energy              =   -1485.52389277 Ry
     estimated scf accuracy    <       0.00000286 Ry

     iteration # 14     ecut=    70.00 Ry     beta= 0.70
     Davidson diagonalization with overlap
     ethr =  6.50E-09,  avg # of iterations =  5.8

     total cpu time spent up to now is      106.9 secs

     total energy              =   -1485.52389925 Ry
     estimated scf accuracy    <       0.00001114 Ry

     iteration # 15     ecut=    70.00 Ry     beta= 0.70
     Davidson diagonalization with overlap
     ethr =  6.50E-09,  avg # of iterations =  5.9

     total cpu time spent up to now is      115.6 secs

     total energy              =   -1485.52390171 Ry
     estimated scf accuracy    <       0.00004830 Ry

     iteration # 16     ecut=    70.00 Ry     beta= 0.70
     Davidson diagonalization with overlap
     ethr =  6.50E-09,  avg # of iterations =  1.2

     total cpu time spent up to now is      121.6 secs

     total energy              =   -1485.52389835 Ry
     estimated scf accuracy    <       0.00004817 Ry

     iteration # 17     ecut=    70.00 Ry     beta= 0.70
     Davidson diagonalization with overlap
     ethr =  6.50E-09,  avg # of iterations =  1.7

     total cpu time spent up to now is      127.7 secs

     total energy              =   -1485.52389644 Ry
     estimated scf accuracy    <       0.00004074 Ry

     iteration # 18     ecut=    70.00 Ry     beta= 0.70
     Davidson diagonalization with overlap
     ethr =  6.50E-09,  avg # of iterations =  2.0

     total cpu time spent up to now is      133.9 secs

     total energy              =   -1485.52388970 Ry
     estimated scf accuracy    <       0.00003204 Ry

     iteration # 19     ecut=    70.00 Ry     beta= 0.70
     Davidson diagonalization with overlap
     ethr =  6.50E-09,  avg # of iterations =  5.9

     total cpu time spent up to now is      142.1 secs

     total energy              =   -1485.52389209 Ry
     estimated scf accuracy    <       0.00000570 Ry

     iteration # 20     ecut=    70.00 Ry     beta= 0.70
     Davidson diagonalization with overlap
     ethr =  6.50E-09,  avg # of iterations =  1.1

     total cpu time spent up to now is      147.7 secs

     total energy              =   -1485.52389045 Ry
     estimated scf accuracy    <       0.00000594 Ry

     iteration # 21     ecut=    70.00 Ry     beta= 0.70
     Davidson diagonalization with overlap
     ethr =  6.50E-09,  avg # of iterations =  2.8

     total cpu time spent up to now is      154.2 secs

     total energy              =   -1485.52389026 Ry
     estimated scf accuracy    <       0.00000232 Ry

     iteration # 22     ecut=    70.00 Ry     beta= 0.70
     Davidson diagonalization with overlap
     ethr =  5.27E-09,  avg # of iterations =  5.9

     total cpu time spent up to now is      161.8 secs

     End of self-consistent calculation

          k = 0.0000 0.0000 0.0000 (  5743 PWs)   bands (ev):

   -17.7143 -15.2244 -12.1981 -12.0158 -12.0158 -11.8175 -11.7575  -7.3883
    -5.8477  -2.8728  -2.8728  -2.6723   1.9466   3.2245   3.6237   3.6237
     5.4273   5.4273   7.7426   8.0921   8.4125   8.4125

          k = 0.0000 0.0000 0.2000 (  5806 PWs)   bands (ev):

   -17.7030 -15.2327 -12.1582 -12.0189 -12.0157 -11.8206 -11.7309  -7.3243
    -6.0915  -2.8493  -2.8455  -2.6469   1.9399   2.0929   3.5410   3.8118
     5.4932   6.7293   7.6852   8.0179   8.3364   8.4598

          k = 0.0000 0.0000 0.4000 (  5822 PWs)   bands (ev):

   -17.6844 -15.2464 -12.1038 -12.0239 -12.0155 -11.8255 -11.6715  -7.0925
    -6.6160  -2.8212  -2.8005  -2.6051   1.2832   1.9273   3.4073   3.7169
     5.6094   7.3396   7.5117   8.0070   8.2084   9.9397

          k = 0.0000 0.2000 0.2000 (  5836 PWs)   bands (ev):

   -17.6961 -15.1034 -12.1590 -12.0225 -12.0195 -11.9033 -11.8204  -7.4439
    -6.0825  -2.8699  -2.8267  -2.6115   0.8047   3.6299   3.6686   3.9686
     5.3237   6.6127   7.6102   7.8554   8.2083   8.4991

          k = 0.0000 0.2000 0.4000 (  5843 PWs)   bands (ev):

   -17.6786 -15.1170 -12.1127 -12.0269 -12.0192 -11.8416 -11.8253  -7.1522
    -6.6256  -2.8855  -2.7871  -2.6218   0.2604   3.5221   3.5474   3.7364
     5.4647   7.3425   7.6750   7.8769   8.0470  10.0429

          k = 0.0000 0.4000 0.4000 (  5862 PWs)   bands (ev):

   -17.6693 -14.8708 -12.2348 -12.0493 -12.0317 -12.0252 -11.8248  -7.2439
    -6.6387  -2.9788  -2.7652  -2.6567  -0.3333   3.7498   3.8369   5.1665
     5.2310   7.3755   7.7272   7.7921   7.8087  10.3557

          k = 0.2000 0.2000 0.2000 (  5848 PWs)   bands (ev):

   -17.6870 -15.1081 -12.1103 -12.0226 -12.0222 -11.8865 -11.8233  -7.3728
    -6.2698  -2.8796  -2.8529  -2.6050   0.2798   3.3288   3.8361   3.8993
     6.0654   6.9091   7.7026   7.8222   8.4858   8.5330

          k = 0.2000 0.2000 0.4000 (  5823 PWs)   bands (ev):

   -17.6722 -15.1157 -12.0490 -12.0270 -12.0223 -11.8365 -11.8278  -7.1352
    -6.7075  -2.9097  -2.8573  -2.6214  -0.3425   3.2352   3.7937   3.8806
     6.5702   7.1683   7.6406   7.8303   8.4853  10.1819

          k = 0.2000 0.4000 0.4000 (  5836 PWs)   bands (ev):

   -17.6632 -14.8693 -12.1987 -12.0325 -12.0284 -12.0220 -11.8280  -7.1927
    -6.6930  -3.0017  -2.8751  -2.7023  -0.9358   3.8201   3.9643   4.8626
     6.5162   7.3995   7.6541   7.8453   8.3694  10.4789

          k = 0.4000 0.4000 0.4000 (  5842 PWs)   bands (ev):

   -17.6533 -14.8669 -12.1617 -12.0341 -12.0335 -11.9519 -11.8332  -7.0477
    -6.8500  -3.0424  -3.0260  -2.7884  -1.6881   3.9842   4.0667   4.8201
     7.3862   7.9158   7.9257   8.0701   8.9014  11.1399

          k = 0.0000 0.2000 0.0000 (  5806 PWs)   bands (ev):

   -17.7067 -15.0952 -12.1978 -12.0197 -12.0197 -11.9282 -11.8174  -7.5326
    -5.8429  -2.8507  -2.8507  -2.6189   1.2576   3.7428   3.7428   4.5002
     5.2461   5.2461   7.4572   7.8468   8.3009   8.3009

          k = 0.0000 0.4000 0.0000 (  5822 PWs)   bands (ev):

   -17.6945 -14.8487 -12.2459 -12.1972 -12.0259 -12.0259 -11.8172  -7.7449
    -5.8351  -2.8145  -2.8145  -2.5491   0.7757   4.0170   4.0170   4.8730
     4.8730   6.1227   7.0403   7.5168   8.1427   8.1427

          k = 0.2000 0.0000 0.2000 (  5836 PWs)   bands (ev):

   -17.6934 -15.2375 -12.1107 -12.0189 -12.0187 -11.8234 -11.7096  -7.2778
    -6.2868  -2.8660  -2.8206  -2.6254   1.2295   1.9452   3.7211   3.8189
     6.2027   7.0139   7.6801   7.8880   8.4070   8.5746

          k = 0.2000 0.4000 0.0000 (  5843 PWs)   bands (ev):

   -17.6849 -14.8571 -12.2378 -12.1460 -12.0281 -12.0256 -11.8201  -7.6217
    -6.0676  -2.8808  -2.7959  -2.5898   0.2521   3.9234   3.9488   4.9756
     5.0908   6.6704   7.3703   7.6475   8.0241   8.6343

          k = 0.4000 0.0000 0.2000 (  5843 PWs)   bands (ev):

   -17.6778 -15.2453 -12.0438 -12.0236 -12.0185 -11.8277 -11.6588  -7.0981
    -6.7156  -2.8551  -2.8237  -2.5901   0.4432   1.9526   3.7110   3.8257
     6.6413   7.0646   7.5375   7.8394   8.5240  10.1002

          k = 0.4000 0.0000 0.4000 (  5862 PWs)   bands (ev):

   -17.6671 -15.2435 -12.0233 -12.0232 -11.9524 -11.8313 -11.6258  -7.0700
    -6.9263  -2.8928  -2.8754  -2.5657  -0.3968   1.9937   3.9033   3.9707
     6.7335   7.5731   7.5985   8.0502   8.8952  11.0524

          k = 0.2000 0.4000 0.2000 (  5823 PWs)   bands (ev):

   -17.6767 -14.8617 -12.2133 -12.1096 -12.0290 -12.0275 -11.8231  -7.5155
    -6.2419  -2.9022  -2.8562  -2.6313  -0.2946   3.8166   4.0446   4.8534
     5.8507   6.9357   7.4982   7.7397   8.4067   8.7866

          k = 0.4000 0.2000 0.4000 (  5836 PWs)   bands (ev):

   -17.6618 -15.1138 -12.0273 -12.0272 -11.9522 -11.8320 -11.8159  -7.0618
    -6.8976  -2.9496  -2.9382  -2.6479  -1.0734   3.1827   3.9412   4.0071
     6.9697   7.7074   7.7239   8.0622   8.9075  11.0634

     highest occupied level (ev):    11.1399

!    total energy              =   -1485.52389087 Ry
     total all-electron energy =    -59834.181504 Ry
     estimated scf accuracy    <       0.00000002 Ry

     The total energy is the sum of the following terms:
     one-electron contribution =    -100.03849764 Ry
     hartree contribution      =      83.09689097 Ry
     xc contribution           =     -77.60775012 Ry
     ewald contribution        =    -229.05509828 Ry
     one-center paw contrib.   =   -1161.91943579 Ry

     convergence has been achieved in  22 iterations

     Forces acting on atoms (cartesian axes, Ry/au):

     atom    1 type  1   force =     0.00000000    0.00000000    0.00000000
     atom    2 type  2   force =     0.00000000    0.00000000    0.00000000
     atom    3 type  4   force =     0.00000000    0.00000000    0.00000000
     atom    4 type  4   force =     0.00000000    0.00000000    0.00000000
     atom    5 type  3   force =     0.00000000    0.00000000    0.00000000

     Total force =     0.000000     Total SCF correction =     0.000000


     Computing stress (Cartesian axis) and pressure

          total   stress  (Ry/bohr**3)                   (kbar)     P=      112.95
   0.00079854   0.00000000   0.00000000          117.47        0.00        0.00
   0.00000000   0.00070636   0.00000000            0.00      103.91        0.00
   0.00000000   0.00000000   0.00079854            0.00        0.00      117.47


     init_run     :      4.70s CPU      5.09s WALL (       1 calls)
     electrons    :    141.35s CPU    155.48s WALL (       1 calls)
     forces       :      1.59s CPU      1.93s WALL (       1 calls)
     stress       :      8.42s CPU      9.36s WALL (       1 calls)

     Called by init_run:
     wfcinit      :      1.65s CPU      1.74s WALL (       1 calls)
     potinit      :      0.84s CPU      0.86s WALL (       1 calls)
     hinit0       :      1.58s CPU      1.67s WALL (       1 calls)

     Called by electrons:
     c_bands      :     87.91s CPU     90.86s WALL (      22 calls)
     sum_band     :     27.23s CPU     33.05s WALL (      22 calls)
     v_of_rho     :      2.54s CPU      2.65s WALL (      23 calls)
     newd         :     12.12s CPU     17.22s WALL (      23 calls)
     PAW_pot      :     11.98s CPU     12.27s WALL (      23 calls)
     mix_rho      :      0.46s CPU      0.47s WALL (      22 calls)

     Called by c_bands:
     init_us_2    :      2.35s CPU      2.45s WALL (     846 calls)
     init_us_2:cp :      2.34s CPU      2.44s WALL (     846 calls)
     cegterg      :     82.85s CPU     85.62s WALL (     396 calls)

     Called by *egterg:
     cdiaghg      :      1.93s CPU      1.99s WALL (    2062 calls)
     h_psi        :     67.19s CPU     69.46s WALL (    2080 calls)
     s_psi        :      3.23s CPU      3.35s WALL (    2080 calls)
     g_psi        :      0.37s CPU      0.38s WALL (    1666 calls)

     Called by h_psi:
     h_psi:calbec :      3.91s CPU      4.02s WALL (    2080 calls)
     vloc_psi     :     59.40s CPU     61.42s WALL (    2080 calls)
     add_vuspsi   :      3.54s CPU      3.66s WALL (    2080 calls)

     General routines
     calbec       :      5.37s CPU      5.55s WALL (    2566 calls)
     fft          :      1.67s CPU      1.76s WALL (     322 calls)
     ffts         :      0.18s CPU      0.19s WALL (      45 calls)
     fftw         :     63.35s CPU     65.58s WALL (   56466 calls)
     interpolate  :      0.25s CPU      0.26s WALL (      23 calls)

     Parallel routines

     PWSCF        :   2m37.15s CPU   2m53.07s WALL


   This run was terminated on:   4:27:35   6May2024            

=------------------------------------------------------------------------------=
   JOB DONE.
=------------------------------------------------------------------------------=
