
     Program PWSCF v.7.1 starts on  6May2024 at  4:45:26 

     This program is part of the open-source Quantum ESPRESSO suite
     for quantum simulation of materials; please cite
         "P. Giannozzi et al., J. Phys.:Condens. Matter 21 395502 (2009);
         "P. Giannozzi et al., J. Phys.:Condens. Matter 29 465901 (2017);
         "P. Giannozzi et al., J. Chem. Phys. 152 154105 (2020);
          URL http://www.quantum-espresso.org", 
     in publications or presentations arising from this work. More details at
     http://www.quantum-espresso.org/quote

     Parallel version (MPI), running on     2 processors

     MPI processes distributed on     1 nodes
     13741 MiB available memory on the printing compute node when the environment starts

     Waiting for input...
     Reading input from standard input
Warning: card &CELL ignored
Warning: card / ignored

     Current dimensions of program PWSCF are:
     Max number of different atomic species (ntypx) = 10
     Max number of k-points (npk) =  40000
     Max angular momentum in pseudopotentials (lmaxx) =  4
     file Ba.pbe-spn-kjpaw_psl.1.0.0.UPF: wavefunction(s)  5S 6S renormalized
     file Bi.pbe-dn-kjpaw_psl.1.0.0.UPF: wavefunction(s)  6P 5D renormalized
     file F.pbe-n-kjpaw_psl.1.0.0.UPF: wavefunction(s)  2S 2P renormalized
     file O.pbe-n-kjpaw_psl.1.0.0.UPF: wavefunction(s)  2S 2P renormalized
     Message from routine setup:
     using ibrav=0 with symmetry is DISCOURAGED, use correct ibrav instead

     R & G space division:  proc/nbgrp/npool/nimage =       2
     Subspace diagonalization in iterative solution of the eigenvalue problem:
     a serial algorithm will be used


     Parallelization info
     --------------------
     sticks:   dense  smooth     PW     G-vecs:    dense   smooth      PW
     Min        1620     808    219                69372    24514    3576
     Max        1621     809    222                69373    24515    3577
     Sum        3241    1617    441               138745    49029    7153

     Using Slab Decomposition



     bravais-lattice index     =            0
     lattice parameter (alat)  =       8.5227  a.u.
     unit-cell volume          =     619.0507 (a.u.)^3
     number of atoms/cell      =            5
     number of atomic types    =            4
     number of electrons       =        44.00
     number of Kohn-Sham states=           22
     kinetic-energy cutoff     =      70.0000  Ry
     charge density cutoff     =     560.0000  Ry
     scf convergence threshold =      1.0E-07
     mixing beta               =       0.7000
     number of iterations used =            8  plain     mixing
     Exchange-correlation= SLA  PW   PBX  PBC
                           (   1   4   3   4   0   0   0)

     celldm(1)=   8.522665  celldm(2)=   0.000000  celldm(3)=   0.000000
     celldm(4)=   0.000000  celldm(5)=   0.000000  celldm(6)=   0.000000

     crystal axes: (cart. coord. in units of alat)
               a(1) = (   1.000000   0.000000   0.000000 )  
               a(2) = (   0.000000   1.000000   0.000000 )  
               a(3) = (   0.000000   0.000000   1.000000 )  

     reciprocal axes: (cart. coord. in units 2 pi/alat)
               b(1) = (  1.000000  0.000000  0.000000 )  
               b(2) = (  0.000000  1.000000  0.000000 )  
               b(3) = (  0.000000  0.000000  1.000000 )  


     PseudoPot. # 1 for Ba read from file:
     /home/bond/Software/qe-7.1/pseudo/Ba.pbe-spn-kjpaw_psl.1.0.0.UPF
     MD5 check sum: 7cfe25f1fe7574a4710541d5a11d6531
     Pseudo is Projector augmented-wave + core cor, Zval = 10.0
     Generated using &quot;atomic&quot; code by A. Dal Corso  v.6.2.2
     Shape of augmentation charge: PSQ
     Using radial grid of 1251 points,  7 beta functions with: 
                l(1) =   0
                l(2) =   0
                l(3) =   0
                l(4) =   1
                l(5) =   1
                l(6) =   2
                l(7) =   2
     Q(r) pseudized with 0 coefficients 


     PseudoPot. # 2 for Bi read from file:
     /home/bond/Software/qe-7.1/pseudo/Bi.pbe-dn-kjpaw_psl.1.0.0.UPF
     MD5 check sum: 266ded784ae3bc462508ed03f0f37963
     Pseudo is Projector augmented-wave + core cor, Zval = 15.0
     Generated using &quot;atomic&quot; code by A. Dal Corso  v.6.2.2
     Shape of augmentation charge: PSQ
     Using radial grid of 1283 points,  6 beta functions with: 
                l(1) =   0
                l(2) =   0
                l(3) =   1
                l(4) =   1
                l(5) =   2
                l(6) =   2
     Q(r) pseudized with 0 coefficients 


     PseudoPot. # 3 for F  read from file:
     /home/bond/Software/qe-7.1/pseudo/F.pbe-n-kjpaw_psl.1.0.0.UPF
     MD5 check sum: 66d718ea72839a4268ab2a9540e8cdd4
     Pseudo is Projector augmented-wave + core cor, Zval =  7.0
     Generated using &quot;atomic&quot; code by A. Dal Corso  v.6.3
     Shape of augmentation charge: PSQ
     Using radial grid of 1105 points,  4 beta functions with: 
                l(1) =   0
                l(2) =   0
                l(3) =   1
                l(4) =   1
     Q(r) pseudized with 0 coefficients 


     PseudoPot. # 4 for O  read from file:
     /home/bond/Software/qe-7.1/pseudo/O.pbe-n-kjpaw_psl.1.0.0.UPF
     MD5 check sum: e99d9cef9b487d1ca56f5b95ecd0fd7a
     Pseudo is Projector augmented-wave + core cor, Zval =  6.0
     Generated using &quot;atomic&quot; code by A. Dal Corso  v.6.3
     Shape of augmentation charge: PSQ
     Using radial grid of 1095 points,  4 beta functions with: 
                l(1) =   0
                l(2) =   0
                l(3) =   1
                l(4) =   1
     Q(r) pseudized with 0 coefficients 


     atomic species   valence    mass     pseudopotential
        Ba            10.00   137.32700     Ba( 1.00)
        Bi            15.00   208.98040     Bi( 1.00)
        F              7.00    18.99840     F ( 1.00)
        O              6.00    15.99900     O ( 1.00)

     16 Sym. Ops., with inversion, found



   Cartesian axes

     site n.     atom                  positions (alat units)
         1           Ba  tau(   1) = (   0.5000000   0.5000000   0.5000000  )
         2           Bi  tau(   2) = (   0.0000000   0.0000000   0.0000000  )
         3           O   tau(   3) = (   0.0000000   0.0000000   0.5000000  )
         4           O   tau(   4) = (   0.5000000   0.0000000   0.0000000  )
         5           F   tau(   5) = (   0.0000000   0.5000000   0.0000000  )

     number of k points=    18
                       cart. coord. in units 2pi/alat
        k(    1) = (   0.0000000   0.0000000   0.0000000), wk =   0.0160000
        k(    2) = (   0.0000000   0.0000000   0.2000000), wk =   0.0640000
        k(    3) = (   0.0000000   0.0000000   0.4000000), wk =   0.0640000
        k(    4) = (   0.0000000   0.2000000   0.2000000), wk =   0.1280000
        k(    5) = (   0.0000000   0.2000000   0.4000000), wk =   0.1280000
        k(    6) = (   0.0000000   0.4000000   0.4000000), wk =   0.1280000
        k(    7) = (   0.2000000   0.2000000   0.2000000), wk =   0.1280000
        k(    8) = (   0.2000000   0.2000000   0.4000000), wk =   0.2560000
        k(    9) = (   0.2000000   0.4000000   0.4000000), wk =   0.2560000
        k(   10) = (   0.4000000   0.4000000   0.4000000), wk =   0.1280000
        k(   11) = (   0.0000000   0.2000000   0.0000000), wk =   0.0320000
        k(   12) = (   0.0000000   0.4000000   0.0000000), wk =   0.0320000
        k(   13) = (   0.2000000   0.0000000   0.2000000), wk =   0.0640000
        k(   14) = (   0.2000000   0.4000000   0.0000000), wk =   0.1280000
        k(   15) = (   0.4000000   0.0000000   0.2000000), wk =   0.1280000
        k(   16) = (   0.4000000   0.0000000   0.4000000), wk =   0.0640000
        k(   17) = (   0.2000000   0.4000000   0.2000000), wk =   0.1280000
        k(   18) = (   0.4000000   0.2000000   0.4000000), wk =   0.1280000

     Dense  grid:   138745 G-vectors     FFT dimensions: (  72,  72,  72)

     Smooth grid:    49029 G-vectors     FFT dimensions: (  45,  45,  45)

     Estimated max dynamical RAM per process >     313.04 MB

     Estimated total dynamical RAM >     626.09 MB

     Initial potential from superposition of free atoms

     starting charge      43.9822, renormalised to      44.0000
     Starting wfcs are   26 randomized atomic wfcs
     Checking if some PAW data can be deallocated... 

     total cpu time spent up to now is        6.8 secs

     Self-consistent Calculation

     iteration #  1     ecut=    70.00 Ry     beta= 0.70
     Davidson diagonalization with overlap
     ethr =  1.00E-02,  avg # of iterations =  1.1

     total cpu time spent up to now is       12.9 secs

     total energy              =   -1484.43653137 Ry
     estimated scf accuracy    <       1.76402861 Ry

     iteration #  2     ecut=    70.00 Ry     beta= 0.70
     Davidson diagonalization with overlap
     ethr =  4.01E-03,  avg # of iterations =  8.7

     total cpu time spent up to now is       22.0 secs

     total energy              =   -1484.43614149 Ry
     estimated scf accuracy    <       6.51282509 Ry

     iteration #  3     ecut=    70.00 Ry     beta= 0.70
     Davidson diagonalization with overlap
     ethr =  4.01E-03,  avg # of iterations =  6.1

     total cpu time spent up to now is       30.2 secs

     total energy              =   -1485.43587664 Ry
     estimated scf accuracy    <       0.11177608 Ry

     iteration #  4     ecut=    70.00 Ry     beta= 0.70
     Davidson diagonalization with overlap
     ethr =  2.54E-04,  avg # of iterations =  7.0

     total cpu time spent up to now is       38.5 secs

     total energy              =   -1485.53608966 Ry
     estimated scf accuracy    <       0.03090574 Ry

     iteration #  5     ecut=    70.00 Ry     beta= 0.70
     Davidson diagonalization with overlap
     ethr =  7.02E-05,  avg # of iterations =  3.2

     total cpu time spent up to now is       45.8 secs

     total energy              =   -1485.53556422 Ry
     estimated scf accuracy    <       0.00819606 Ry

     iteration #  6     ecut=    70.00 Ry     beta= 0.70
     Davidson diagonalization with overlap
     ethr =  1.86E-05,  avg # of iterations =  6.2

     total cpu time spent up to now is       54.8 secs

     total energy              =   -1485.53954824 Ry
     estimated scf accuracy    <       0.00582678 Ry

     iteration #  7     ecut=    70.00 Ry     beta= 0.70
     Davidson diagonalization with overlap
     ethr =  1.32E-05,  avg # of iterations =  3.1

     total cpu time spent up to now is       61.9 secs

     total energy              =   -1485.53978842 Ry
     estimated scf accuracy    <       0.00097867 Ry

     iteration #  8     ecut=    70.00 Ry     beta= 0.70
     Davidson diagonalization with overlap
     ethr =  2.22E-06,  avg # of iterations =  6.9

     total cpu time spent up to now is       70.8 secs

     total energy              =   -1485.54124717 Ry
     estimated scf accuracy    <       0.00128973 Ry

     iteration #  9     ecut=    70.00 Ry     beta= 0.70
     Davidson diagonalization with overlap
     ethr =  2.22E-06,  avg # of iterations =  1.5

     total cpu time spent up to now is       76.9 secs

     total energy              =   -1485.54066581 Ry
     estimated scf accuracy    <       0.00189078 Ry

     iteration # 10     ecut=    70.00 Ry     beta= 0.70
     Davidson diagonalization with overlap
     ethr =  2.22E-06,  avg # of iterations =  2.0

     total cpu time spent up to now is       83.3 secs

     total energy              =   -1485.54037169 Ry
     estimated scf accuracy    <       0.00085910 Ry

     iteration # 11     ecut=    70.00 Ry     beta= 0.70
     Davidson diagonalization with overlap
     ethr =  1.95E-06,  avg # of iterations =  5.2

     total cpu time spent up to now is       91.8 secs

     total energy              =   -1485.54070850 Ry
     estimated scf accuracy    <       0.00017574 Ry

     iteration # 12     ecut=    70.00 Ry     beta= 0.70
     Davidson diagonalization with overlap
     ethr =  3.99E-07,  avg # of iterations =  1.9

     total cpu time spent up to now is       98.4 secs

     total energy              =   -1485.54070310 Ry
     estimated scf accuracy    <       0.00009746 Ry

     iteration # 13     ecut=    70.00 Ry     beta= 0.70
     Davidson diagonalization with overlap
     ethr =  2.22E-07,  avg # of iterations =  2.0

     total cpu time spent up to now is      104.9 secs

     total energy              =   -1485.54069395 Ry
     estimated scf accuracy    <       0.00004765 Ry

     iteration # 14     ecut=    70.00 Ry     beta= 0.70
     Davidson diagonalization with overlap
     ethr =  1.08E-07,  avg # of iterations =  5.2

     total cpu time spent up to now is      113.4 secs

     total energy              =   -1485.54071737 Ry
     estimated scf accuracy    <       0.00000504 Ry

     iteration # 15     ecut=    70.00 Ry     beta= 0.70
     Davidson diagonalization with overlap
     ethr =  1.14E-08,  avg # of iterations =  6.1

     total cpu time spent up to now is      122.0 secs

     total energy              =   -1485.54072210 Ry
     estimated scf accuracy    <       0.00003105 Ry

     iteration # 16     ecut=    70.00 Ry     beta= 0.70
     Davidson diagonalization with overlap
     ethr =  1.14E-08,  avg # of iterations =  2.5

     total cpu time spent up to now is      128.8 secs

     total energy              =   -1485.54071617 Ry
     estimated scf accuracy    <       0.00003655 Ry

     iteration # 17     ecut=    70.00 Ry     beta= 0.70
     Davidson diagonalization with overlap
     ethr =  1.14E-08,  avg # of iterations =  2.0

     total cpu time spent up to now is      136.1 secs

     total energy              =   -1485.54071025 Ry
     estimated scf accuracy    <       0.00002430 Ry

     iteration # 18     ecut=    70.00 Ry     beta= 0.70
     Davidson diagonalization with overlap
     ethr =  1.14E-08,  avg # of iterations =  5.8

     total cpu time spent up to now is      144.8 secs

     total energy              =   -1485.54071317 Ry
     estimated scf accuracy    <       0.00000104 Ry

     iteration # 19     ecut=    70.00 Ry     beta= 0.70
     Davidson diagonalization with overlap
     ethr =  2.37E-09,  avg # of iterations =  3.0

     total cpu time spent up to now is      151.5 secs

     total energy              =   -1485.54071310 Ry
     estimated scf accuracy    <       0.00000042 Ry

     iteration # 20     ecut=    70.00 Ry     beta= 0.70
     Davidson diagonalization with overlap
     ethr =  9.49E-10,  avg # of iterations =  5.7

     total cpu time spent up to now is      160.1 secs

     total energy              =   -1485.54071324 Ry
     estimated scf accuracy    <       0.00000017 Ry

     iteration # 21     ecut=    70.00 Ry     beta= 0.70
     Davidson diagonalization with overlap
     ethr =  3.96E-10,  avg # of iterations =  6.3

     total cpu time spent up to now is      169.4 secs

     total energy              =   -1485.54071323 Ry
     estimated scf accuracy    <       0.00000033 Ry

     iteration # 22     ecut=    70.00 Ry     beta= 0.70
     Davidson diagonalization with overlap
     ethr =  3.96E-10,  avg # of iterations =  5.7

     total cpu time spent up to now is      178.1 secs

     End of self-consistent calculation

          k = 0.0000 0.0000 0.0000 (  6043 PWs)   bands (ev):

   -18.4419 -15.6056 -12.8583 -12.7614 -12.7614 -12.5641 -12.4880  -7.8417
    -6.4536  -3.5846  -3.5846  -3.3891   1.5786   2.2665   3.2011   3.2011
     4.9733   4.9733   7.2189   7.5950   7.8899   7.8899

          k = 0.0000 0.0000 0.2000 (  6115 PWs)   bands (ev):

   -18.4339 -15.6113 -12.8257 -12.7638 -12.7614 -12.5666 -12.4685  -7.7746
    -6.6605  -3.5693  -3.5635  -3.3695   1.3265   1.5757   3.1318   3.3553
     5.0354   6.1430   7.1761   7.5176   7.8143   7.8948

          k = 0.0000 0.0000 0.4000 (  6146 PWs)   bands (ev):

   -18.4207 -15.6206 -12.7805 -12.7677 -12.7612 -12.5704 -12.4257  -7.5441
    -7.1190  -3.5510  -3.5288  -3.3374   0.5544   1.5697   3.0199   3.2918
     5.1449   6.8558   7.0355   7.4885   7.6873   9.1516

          k = 0.0000 0.2000 0.2000 (  6126 PWs)   bands (ev):

   -18.4287 -15.4905 -12.8265 -12.7666 -12.7643 -12.6277 -12.5665  -7.8688
    -6.6526  -3.5856  -3.5487  -3.3437   0.2327   3.1144   3.2511   3.4563
     4.8777   6.0450   7.0603   7.3660   7.6983   7.9246

          k = 0.0000 0.2000 0.4000 (  6111 PWs)   bands (ev):

   -18.4162 -15.4997 -12.7888 -12.7700 -12.7640 -12.5813 -12.5702  -7.5908
    -7.1241  -3.6032  -3.5180  -3.3523  -0.3154   2.9790   3.1489   3.3074
     5.0102   6.8563   7.1671   7.3657   7.5419   9.2414

          k = 0.0000 0.4000 0.4000 (  6142 PWs)   bands (ev):

   -18.4089 -15.2691 -12.9263 -12.7738 -12.7687 -12.7462 -12.5699  -7.6632
    -7.1314  -3.6807  -3.5003  -3.3818  -0.8979   3.3248   3.4119   4.6190
     4.7365   6.8605   7.2191   7.2633   7.3259   9.5075

          k = 0.2000 0.2000 0.2000 (  6139 PWs)   bands (ev):

   -18.4221 -15.4936 -12.7876 -12.7667 -12.7664 -12.6152 -12.5687  -7.7980
    -6.8114  -3.5934  -3.5711  -3.3403  -0.2679   2.8529   3.3704   3.4499
     5.5795   6.3693   7.1561   7.3336   7.8215   8.0043

          k = 0.2000 0.2000 0.4000 (  6111 PWs)   bands (ev):

   -18.4113 -15.4986 -12.7701 -12.7664 -12.7386 -12.5776 -12.5722  -7.5704
    -7.1899  -3.6216  -3.5749  -3.3535  -0.8707   2.7627   3.3516   3.4316
     6.0364   6.6913   7.1409   7.3216   7.9522   9.3566

          k = 0.2000 0.4000 0.4000 (  6134 PWs)   bands (ev):

   -18.4042 -15.2678 -12.9024 -12.7743 -12.7711 -12.7203 -12.5724  -7.6143
    -7.1753  -3.6980  -3.5901  -3.4203  -1.4386   3.3863   3.5138   4.3092
     5.9742   6.8967   7.1264   7.3325   7.8426   9.6139

          k = 0.4000 0.4000 0.4000 (  6082 PWs)   bands (ev):

   -18.3965 -15.2656 -12.8761 -12.7754 -12.7750 -12.6629 -12.5763  -7.4794
    -7.3057  -3.7294  -3.7163  -3.4909  -2.1284   3.5254   3.5964   4.2549
     6.8723   7.3619   7.3824   7.5179   8.3541  10.2863

          k = 0.0000 0.2000 0.0000 (  6115 PWs)   bands (ev):

   -18.4363 -15.4849 -12.8581 -12.7644 -12.7644 -12.6463 -12.5641  -7.9560
    -6.4495  -3.5674  -3.5674  -3.3480   0.6859   3.3138   3.3138   3.7191
     4.8044   4.8044   6.9262   7.3679   7.7885   7.7885

          k = 0.0000 0.4000 0.0000 (  6146 PWs)   bands (ev):

   -18.4273 -15.2538 -12.9408 -12.8577 -12.7692 -12.7692 -12.5640  -8.1267
    -6.4428  -3.5394  -3.5394  -3.2925   0.1506   3.5673   3.5673   4.4616
     4.4616   5.4440   6.3866   7.0602   7.6440   7.6440

          k = 0.2000 0.0000 0.2000 (  6126 PWs)   bands (ev):

   -18.4269 -15.6144 -12.7879 -12.7638 -12.7637 -12.5687 -12.4525  -7.7239
    -6.8258  -3.5820  -3.5467  -3.3527   0.5629   1.5827   3.2806   3.3751
     5.7064   6.4493   7.1721   7.3994   7.7621   8.0433

          k = 0.2000 0.4000 0.0000 (  6111 PWs)   bands (ev):

   -18.4203 -15.2596 -12.9321 -12.8191 -12.7709 -12.7689 -12.5662  -8.0109
    -6.6397  -3.5960  -3.5246  -3.3263  -0.3349   3.4812   3.5083   4.5545
     4.5583   6.1273   6.7375   7.1658   7.5306   8.0047

          k = 0.4000 0.0000 0.2000 (  6111 PWs)   bands (ev):

   -18.4156 -15.6195 -12.7675 -12.7635 -12.7339 -12.5722 -12.4157  -7.5423
    -7.1985  -3.5757  -3.5498  -3.3253  -0.1815   1.5932   3.2806   3.3856
     6.1048   6.5962   7.0595   7.3377   7.9897   9.2847

          k = 0.4000 0.0000 0.4000 (  6142 PWs)   bands (ev):

   -18.4074 -15.6179 -12.7672 -12.7672 -12.6632 -12.5750 -12.3911  -7.5027
    -7.3717  -3.6054  -3.5919  -3.3056  -0.9615   1.6313   3.4539   3.5125
     6.2847   7.0920   7.1208   7.4584   8.3490  10.1570

          k = 0.2000 0.4000 0.2000 (  6111 PWs)   bands (ev):

   -18.4142 -15.2627 -12.9158 -12.7872 -12.7715 -12.7705 -12.5685  -7.9111
    -6.7878  -3.6123  -3.5760  -3.3610  -0.8348   3.3889   3.5846   4.3217
     5.3783   6.4151   6.9279   7.2514   7.8890   8.0371

          k = 0.4000 0.2000 0.4000 (  6134 PWs)   bands (ev):

   -18.4032 -15.4968 -12.7703 -12.7702 -12.6631 -12.5755 -12.5626  -7.4940
    -7.3469  -3.6525  -3.6432  -3.3742  -1.5557   2.7117   3.4861   3.5442
     6.4977   7.2067   7.2212   7.4768   8.3600  10.1743

     highest occupied level (ev):    10.2863

!    total energy              =   -1485.54071330 Ry
     total all-electron energy =    -59834.198327 Ry
     estimated scf accuracy    <       0.00000005 Ry

     The total energy is the sum of the following terms:
     one-electron contribution =    -105.34041562 Ry
     hartree contribution      =      84.68756442 Ry
     xc contribution           =     -77.48117437 Ry
     ewald contribution        =    -225.49991937 Ry
     one-center paw contrib.   =   -1161.90676836 Ry

     convergence has been achieved in  22 iterations

     Forces acting on atoms (cartesian axes, Ry/au):

     atom    1 type  1   force =     0.00000000    0.00000000    0.00000000
     atom    2 type  2   force =     0.00000000    0.00000000    0.00000000
     atom    3 type  4   force =     0.00000000    0.00000000    0.00000000
     atom    4 type  4   force =     0.00000000    0.00000000    0.00000000
     atom    5 type  3   force =     0.00000000    0.00000000    0.00000000

     Total force =     0.000000     Total SCF correction =     0.000000


     Computing stress (Cartesian axis) and pressure

          total   stress  (Ry/bohr**3)                   (kbar)     P=       57.20
   0.00041166   0.00000000   0.00000000           60.56        0.00        0.00
   0.00000000   0.00034310   0.00000000            0.00       50.47        0.00
   0.00000000   0.00000000   0.00041166            0.00        0.00       60.56


     init_run     :      5.27s CPU      5.62s WALL (       1 calls)
     electrons    :    148.94s CPU    171.37s WALL (       1 calls)
     forces       :      1.63s CPU      2.17s WALL (       1 calls)
     stress       :      8.90s CPU     10.33s WALL (       1 calls)

     Called by init_run:
     wfcinit      :      1.75s CPU      1.78s WALL (       1 calls)
     potinit      :      0.92s CPU      0.97s WALL (       1 calls)
     hinit0       :      1.89s CPU      1.97s WALL (       1 calls)

     Called by electrons:
     c_bands      :     92.95s CPU    100.03s WALL (      22 calls)
     sum_band     :     28.50s CPU     36.48s WALL (      22 calls)
     v_of_rho     :      3.57s CPU      3.87s WALL (      23 calls)
     newd         :     12.16s CPU     18.54s WALL (      23 calls)
     PAW_pot      :     12.10s CPU     12.89s WALL (      23 calls)
     mix_rho      :      0.59s CPU      0.67s WALL (      22 calls)

     Called by c_bands:
     init_us_2    :      2.50s CPU      2.69s WALL (     846 calls)
     init_us_2:cp :      2.49s CPU      2.69s WALL (     846 calls)
     cegterg      :     87.66s CPU     94.30s WALL (     396 calls)

     Called by *egterg:
     cdiaghg      :      2.02s CPU      2.16s WALL (    2148 calls)
     h_psi        :     70.51s CPU     75.79s WALL (    2166 calls)
     s_psi        :      3.53s CPU      3.80s WALL (    2166 calls)
     g_psi        :      0.41s CPU      0.44s WALL (    1752 calls)

     Called by h_psi:
     h_psi:calbec :      4.24s CPU      4.58s WALL (    2166 calls)
     vloc_psi     :     62.00s CPU     66.61s WALL (    2166 calls)
     add_vuspsi   :      3.89s CPU      4.19s WALL (    2166 calls)

     General routines
     calbec       :      5.66s CPU      6.14s WALL (    2652 calls)
     fft          :      2.56s CPU      2.77s WALL (     322 calls)
     ffts         :      0.18s CPU      0.19s WALL (      45 calls)
     fftw         :     65.88s CPU     70.82s WALL (   57992 calls)
     interpolate  :      0.32s CPU      0.34s WALL (      23 calls)

     Parallel routines

     PWSCF        :   2m45.81s CPU   3m10.66s WALL


   This run was terminated on:   4:48:37   6May2024            

=------------------------------------------------------------------------------=
   JOB DONE.
=------------------------------------------------------------------------------=
