
     Program PWSCF v.7.1 starts on  6May2024 at  2:56:43 

     This program is part of the open-source Quantum ESPRESSO suite
     for quantum simulation of materials; please cite
         "P. Giannozzi et al., J. Phys.:Condens. Matter 21 395502 (2009);
         "P. Giannozzi et al., J. Phys.:Condens. Matter 29 465901 (2017);
         "P. Giannozzi et al., J. Chem. Phys. 152 154105 (2020);
          URL http://www.quantum-espresso.org", 
     in publications or presentations arising from this work. More details at
     http://www.quantum-espresso.org/quote

     Parallel version (MPI), running on     2 processors

     MPI processes distributed on     1 nodes
     13799 MiB available memory on the printing compute node when the environment starts

     Waiting for input...
     Reading input from standard input
Warning: card &CELL ignored
Warning: card / ignored

     Current dimensions of program PWSCF are:
     Max number of different atomic species (ntypx) = 10
     Max number of k-points (npk) =  40000
     Max angular momentum in pseudopotentials (lmaxx) =  4
     file Ba.pbe-spn-kjpaw_psl.1.0.0.UPF: wavefunction(s)  5S 6S renormalized
     file Bi.pbe-dn-kjpaw_psl.1.0.0.UPF: wavefunction(s)  6P 5D renormalized
     file O.pbe-n-kjpaw_psl.1.0.0.UPF: wavefunction(s)  2S 2P renormalized
     Message from routine setup:
     using ibrav=0 with symmetry is DISCOURAGED, use correct ibrav instead

     R & G space division:  proc/nbgrp/npool/nimage =       2
     Subspace diagonalization in iterative solution of the eigenvalue problem:
     a serial algorithm will be used


     Parallelization info
     --------------------
     sticks:   dense  smooth     PW     G-vecs:    dense   smooth      PW
     Min        1566     782    218                66153    23374    3488
     Max        1567     783    219                66154    23379    3491
     Sum        3133    1565    437               132307    46753    6979

     Using Slab Decomposition



     bravais-lattice index     =            0
     lattice parameter (alat)  =       8.3904  a.u.
     unit-cell volume          =     590.6708 (a.u.)^3
     number of atoms/cell      =            5
     number of atomic types    =            3
     number of electrons       =        43.00
     number of Kohn-Sham states=           26
     kinetic-energy cutoff     =      70.0000  Ry
     charge density cutoff     =     560.0000  Ry
     scf convergence threshold =      1.0E-07
     mixing beta               =       0.7000
     number of iterations used =            8  plain     mixing
     Exchange-correlation= SLA  PW   PBX  PBC
                           (   1   4   3   4   0   0   0)

     celldm(1)=   8.390384  celldm(2)=   0.000000  celldm(3)=   0.000000
     celldm(4)=   0.000000  celldm(5)=   0.000000  celldm(6)=   0.000000

     crystal axes: (cart. coord. in units of alat)
               a(1) = (   1.000000   0.000000   0.000000 )  
               a(2) = (   0.000000   1.000000   0.000000 )  
               a(3) = (   0.000000   0.000000   1.000000 )  

     reciprocal axes: (cart. coord. in units 2 pi/alat)
               b(1) = (  1.000000  0.000000  0.000000 )  
               b(2) = (  0.000000  1.000000  0.000000 )  
               b(3) = (  0.000000  0.000000  1.000000 )  


     PseudoPot. # 1 for Ba read from file:
     /home/bond/Software/qe-7.1/pseudo/Ba.pbe-spn-kjpaw_psl.1.0.0.UPF
     MD5 check sum: 7cfe25f1fe7574a4710541d5a11d6531
     Pseudo is Projector augmented-wave + core cor, Zval = 10.0
     Generated using &quot;atomic&quot; code by A. Dal Corso  v.6.2.2
     Shape of augmentation charge: PSQ
     Using radial grid of 1251 points,  7 beta functions with: 
                l(1) =   0
                l(2) =   0
                l(3) =   0
                l(4) =   1
                l(5) =   1
                l(6) =   2
                l(7) =   2
     Q(r) pseudized with 0 coefficients 


     PseudoPot. # 2 for Bi read from file:
     /home/bond/Software/qe-7.1/pseudo/Bi.pbe-dn-kjpaw_psl.1.0.0.UPF
     MD5 check sum: 266ded784ae3bc462508ed03f0f37963
     Pseudo is Projector augmented-wave + core cor, Zval = 15.0
     Generated using &quot;atomic&quot; code by A. Dal Corso  v.6.2.2
     Shape of augmentation charge: PSQ
     Using radial grid of 1283 points,  6 beta functions with: 
                l(1) =   0
                l(2) =   0
                l(3) =   1
                l(4) =   1
                l(5) =   2
                l(6) =   2
     Q(r) pseudized with 0 coefficients 


     PseudoPot. # 3 for O  read from file:
     /home/bond/Software/qe-7.1/pseudo/O.pbe-n-kjpaw_psl.1.0.0.UPF
     MD5 check sum: e99d9cef9b487d1ca56f5b95ecd0fd7a
     Pseudo is Projector augmented-wave + core cor, Zval =  6.0
     Generated using &quot;atomic&quot; code by A. Dal Corso  v.6.3
     Shape of augmentation charge: PSQ
     Using radial grid of 1095 points,  4 beta functions with: 
                l(1) =   0
                l(2) =   0
                l(3) =   1
                l(4) =   1
     Q(r) pseudized with 0 coefficients 


     atomic species   valence    mass     pseudopotential
        Ba            10.00   137.32700     Ba( 1.00)
        Bi            15.00   208.98040     Bi( 1.00)
        O              6.00    15.99900     O ( 1.00)

     48 Sym. Ops., with inversion, found



   Cartesian axes

     site n.     atom                  positions (alat units)
         1           Ba  tau(   1) = (   0.5000000   0.5000000   0.5000000  )
         2           Bi  tau(   2) = (   0.0000000   0.0000000   0.0000000  )
         3           O   tau(   3) = (   0.0000000   0.0000000   0.5000000  )
         4           O   tau(   4) = (   0.5000000   0.0000000   0.0000000  )
         5           O   tau(   5) = (   0.0000000   0.5000000   0.0000000  )

     number of k points=    10  Methfessel-Paxton smearing, width (Ry)=  0.0200
                       cart. coord. in units 2pi/alat
        k(    1) = (   0.0000000   0.0000000   0.0000000), wk =   0.0160000
        k(    2) = (   0.0000000   0.0000000   0.2000000), wk =   0.0960000
        k(    3) = (   0.0000000   0.0000000   0.4000000), wk =   0.0960000
        k(    4) = (   0.0000000   0.2000000   0.2000000), wk =   0.1920000
        k(    5) = (   0.0000000   0.2000000   0.4000000), wk =   0.3840000
        k(    6) = (   0.0000000   0.4000000   0.4000000), wk =   0.1920000
        k(    7) = (   0.2000000   0.2000000   0.2000000), wk =   0.1280000
        k(    8) = (   0.2000000   0.2000000   0.4000000), wk =   0.3840000
        k(    9) = (   0.2000000   0.4000000   0.4000000), wk =   0.3840000
        k(   10) = (   0.4000000   0.4000000   0.4000000), wk =   0.1280000

     Dense  grid:   132307 G-vectors     FFT dimensions: (  64,  64,  64)

     Smooth grid:    46753 G-vectors     FFT dimensions: (  45,  45,  45)

     Estimated max dynamical RAM per process >     285.35 MB

     Estimated total dynamical RAM >     570.71 MB

     Initial potential from superposition of free atoms

     starting charge      42.9822, renormalised to      43.0000
     Starting wfcs are   26 randomized atomic wfcs
     Checking if some PAW data can be deallocated... 

     total cpu time spent up to now is        5.5 secs

     Self-consistent Calculation

     iteration #  1     ecut=    70.00 Ry     beta= 0.70
     Davidson diagonalization with overlap
     ethr =  1.00E-02,  avg # of iterations =  2.7

     total cpu time spent up to now is       10.3 secs

     total energy              =   -1466.63663132 Ry
     estimated scf accuracy    <       1.77124417 Ry

     iteration #  2     ecut=    70.00 Ry     beta= 0.70
     Davidson diagonalization with overlap
     ethr =  4.12E-03,  avg # of iterations =  6.7

     total cpu time spent up to now is       16.5 secs

     total energy              =   -1467.10385696 Ry
     estimated scf accuracy    <       4.04087034 Ry

     iteration #  3     ecut=    70.00 Ry     beta= 0.70
     Davidson diagonalization with overlap
     ethr =  4.12E-03,  avg # of iterations =  2.4

     total cpu time spent up to now is       21.4 secs

     total energy              =   -1467.41383231 Ry
     estimated scf accuracy    <       0.40514537 Ry

     iteration #  4     ecut=    70.00 Ry     beta= 0.70
     Davidson diagonalization with overlap
     ethr =  9.42E-04,  avg # of iterations =  5.4

     total cpu time spent up to now is       27.3 secs

     total energy              =   -1467.77961293 Ry
     estimated scf accuracy    <       0.17143938 Ry

     iteration #  5     ecut=    70.00 Ry     beta= 0.70
     Davidson diagonalization with overlap
     ethr =  3.99E-04,  avg # of iterations =  2.2

     total cpu time spent up to now is       32.0 secs

     total energy              =   -1467.75016278 Ry
     estimated scf accuracy    <       0.09303070 Ry

     iteration #  6     ecut=    70.00 Ry     beta= 0.70
     Davidson diagonalization with overlap
     ethr =  2.16E-04,  avg # of iterations =  6.5

     total cpu time spent up to now is       37.8 secs

     total energy              =   -1467.76037788 Ry
     estimated scf accuracy    <       0.00713178 Ry

     iteration #  7     ecut=    70.00 Ry     beta= 0.70
     Davidson diagonalization with overlap
     c_bands:  1 eigenvalues not converged
     c_bands:  1 eigenvalues not converged
     ethr =  1.66E-05,  avg # of iterations = 12.0

     total cpu time spent up to now is       45.2 secs

     total energy              =   -1467.76699135 Ry
     estimated scf accuracy    <       0.00199771 Ry

     iteration #  8     ecut=    70.00 Ry     beta= 0.70
     Davidson diagonalization with overlap
     ethr =  4.65E-06,  avg # of iterations =  5.1

     total cpu time spent up to now is       50.0 secs

     total energy              =   -1467.76626792 Ry
     estimated scf accuracy    <       0.00183164 Ry

     iteration #  9     ecut=    70.00 Ry     beta= 0.70
     Davidson diagonalization with overlap
     ethr =  4.26E-06,  avg # of iterations =  2.7

     total cpu time spent up to now is       54.7 secs

     total energy              =   -1467.76638880 Ry
     estimated scf accuracy    <       0.00019369 Ry

     iteration # 10     ecut=    70.00 Ry     beta= 0.70
     Davidson diagonalization with overlap
     ethr =  4.50E-07,  avg # of iterations =  5.0

     total cpu time spent up to now is       60.9 secs

     total energy              =   -1467.76657367 Ry
     estimated scf accuracy    <       0.00010560 Ry

     iteration # 11     ecut=    70.00 Ry     beta= 0.70
     Davidson diagonalization with overlap
     ethr =  2.46E-07,  avg # of iterations =  3.9

     total cpu time spent up to now is       65.8 secs

     total energy              =   -1467.76658354 Ry
     estimated scf accuracy    <       0.00000732 Ry

     iteration # 12     ecut=    70.00 Ry     beta= 0.70
     Davidson diagonalization with overlap
     ethr =  1.70E-08,  avg # of iterations =  5.2

     total cpu time spent up to now is       71.8 secs

     total energy              =   -1467.76659294 Ry
     estimated scf accuracy    <       0.00001339 Ry

     iteration # 13     ecut=    70.00 Ry     beta= 0.70
     Davidson diagonalization with overlap
     ethr =  1.70E-08,  avg # of iterations =  2.0

     total cpu time spent up to now is       76.4 secs

     total energy              =   -1467.76659271 Ry
     estimated scf accuracy    <       0.00000299 Ry

     iteration # 14     ecut=    70.00 Ry     beta= 0.70
     Davidson diagonalization with overlap
     ethr =  6.96E-09,  avg # of iterations =  5.6

     total cpu time spent up to now is       82.0 secs

     total energy              =   -1467.76659405 Ry
     estimated scf accuracy    <       0.00000028 Ry

     iteration # 15     ecut=    70.00 Ry     beta= 0.70
     Davidson diagonalization with overlap
     ethr =  6.42E-10,  avg # of iterations =  3.1

     total cpu time spent up to now is       87.0 secs

     End of self-consistent calculation

          k = 0.0000 0.0000 0.0000 (  5743 PWs)   bands (ev):

   -17.4346 -13.2775 -13.2775 -12.9141 -12.9141 -12.9141  -8.9175  -6.6331
    -6.6331  -2.5425  -2.5425  -2.5425   3.0617   3.9857   3.9857   3.9857
     7.5781   7.5781   7.5781   7.7937   7.7937   7.7937  12.8982  12.8982
    13.9037  14.8129

          k = 0.0000 0.0000 0.2000 (  5806 PWs)   bands (ev):

   -17.4267 -13.2773 -13.2252 -12.9169 -12.9169 -12.9140  -8.8208  -6.9366
    -6.6291  -2.5173  -2.5173  -2.5018   1.8290   3.9937   3.9937   5.5973
     7.3921   7.4944   7.4944   7.7160   7.7160   7.9219  13.3495  13.3641
    14.5672  15.1231

          k = 0.0000 0.0000 0.4000 (  5822 PWs)   bands (ev):

   -17.4139 -13.2768 -13.1383 -12.9214 -12.9214 -12.9139  -8.5395  -7.5448
    -6.6226  -2.4759  -2.4759  -2.4532   1.0524   4.0001   4.0001   6.3162
     7.1285   7.4188   7.4188   7.5556   7.5556   9.2490  14.0015  14.1099
    15.0765  15.5651

          k = 0.0000 0.2000 0.2000 (  5836 PWs)   bands (ev):

   -17.4195 -13.2516 -13.1969 -12.9194 -12.9169 -12.9167  -8.7218  -7.0475
    -6.7905  -2.5443  -2.4957  -2.4646   0.9830   4.0313   4.9235   5.8474
     7.1018   7.4011   7.5889   7.6197   7.8970   8.0952  13.6401  13.8657
    14.7865  15.2041

          k = 0.0000 0.2000 0.4000 (  5843 PWs)   bands (ev):

   -17.4077 -13.2427 -13.1158 -12.9234 -12.9212 -12.9166  -8.4311  -7.5656
    -6.8432  -2.5277  -2.4782  -2.4602   0.2677   4.0895   5.2754   6.2559
     6.9936   7.3088   7.4249   7.5249   7.8661   9.4882  14.2162  14.4777
    15.1752  15.3537

          k = 0.0000 0.4000 0.4000 (  5862 PWs)   bands (ev):

   -17.3975 -13.2109 -13.0531 -12.9266 -12.9209 -12.9209  -8.1113  -7.6562
    -7.3004  -2.5759  -2.5493  -2.4344  -0.4621   4.2465   6.0994   6.7712
     7.0531   7.1450   7.2010   7.5968   8.1970  10.4667  14.3513  14.4969
    14.9072  15.0149

          k = 0.2000 0.2000 0.2000 (  5848 PWs)   bands (ev):

   -17.4127 -13.1967 -13.1967 -12.9196 -12.9196 -12.9190  -8.6245  -7.0358
    -7.0358  -2.5515  -2.5515  -2.4255   0.2637   4.9563   4.9563   5.9694
     7.0992   7.0992   7.8275   7.8307   7.8307   8.2564  13.9816  13.9816
    14.7620  15.2237

          k = 0.2000 0.2000 0.4000 (  5823 PWs)   bands (ev):

   -17.4016 -13.1962 -13.1050 -12.9242 -12.9229 -12.9193  -8.3355  -7.5702
    -7.0167  -2.5638  -2.5570  -2.4580  -0.4308   5.0060   5.6038   6.2914
     6.9013   7.1311   7.6868   7.7025   7.9333   9.6580  14.0320  14.4374
    14.9870  15.0906

          k = 0.2000 0.4000 0.4000 (  5836 PWs)   bands (ev):

   -17.3917 -13.1519 -13.0529 -12.9274 -12.9239 -12.9236  -8.0518  -7.6364
    -7.3827  -2.6246  -2.6154  -2.5153  -1.1632   5.3965   6.3124   6.7838
     6.8764   7.1168   7.6742   7.8234   8.2125  10.5623  13.6340  13.7227
    14.2839  15.2589

          k = 0.4000 0.4000 0.4000 (  5842 PWs)   bands (ev):

   -17.3824 -13.0527 -13.0527 -12.9288 -12.9288 -12.9280  -7.8770  -7.6038
    -7.6038  -2.7034  -2.7034  -2.6551  -1.9677   6.6469   6.8234   6.8234
     7.0976   7.0976   8.1532   8.1532   8.2666  11.1137  12.7317  12.7318
    13.3203  16.3734

     the Fermi energy is     9.6154 ev

!    total energy              =   -1467.76659410 Ry
     total all-electron energy =    -59784.858377 Ry
     estimated scf accuracy    <       0.00000002 Ry
     smearing contrib. (-TS)   =      -0.00137859 Ry
     internal energy E=F+TS    =   -1467.76521551 Ry

     The total energy is F=E-TS. E is the sum of the following terms:
     one-electron contribution =     -84.85969646 Ry
     hartree contribution      =      73.92196876 Ry
     xc contribution           =     -75.25818704 Ry
     ewald contribution        =    -221.26120186 Ry
     one-center paw contrib.   =   -1160.30809891 Ry

     convergence has been achieved in  15 iterations

     Forces acting on atoms (cartesian axes, Ry/au):

     atom    1 type  1   force =     0.00000000    0.00000000    0.00000000
     atom    2 type  2   force =     0.00000000    0.00000000    0.00000000
     atom    3 type  3   force =     0.00000000    0.00000000    0.00000000
     atom    4 type  3   force =     0.00000000    0.00000000    0.00000000
     atom    5 type  3   force =     0.00000000    0.00000000    0.00000000

     Total force =     0.000000     Total SCF correction =     0.000000


     Computing stress (Cartesian axis) and pressure

          total   stress  (Ry/bohr**3)                   (kbar)     P=      -11.07
  -0.00007523   0.00000000   0.00000000          -11.07        0.00        0.00
   0.00000000  -0.00007523   0.00000000            0.00      -11.07        0.00
   0.00000000   0.00000000  -0.00007523            0.00        0.00      -11.07


     init_run     :      3.75s CPU      4.43s WALL (       1 calls)
     electrons    :     69.96s CPU     81.47s WALL (       1 calls)
     forces       :      1.20s CPU      1.47s WALL (       1 calls)
     stress       :      7.08s CPU      8.18s WALL (       1 calls)

     Called by init_run:
     wfcinit      :      0.88s CPU      0.97s WALL (       1 calls)
     potinit      :      0.83s CPU      0.94s WALL (       1 calls)
     hinit0       :      1.43s CPU      1.50s WALL (       1 calls)

     Called by electrons:
     c_bands      :     39.51s CPU     42.97s WALL (      15 calls)
     sum_band     :     13.97s CPU     18.24s WALL (      15 calls)
     v_of_rho     :      1.68s CPU      1.83s WALL (      16 calls)
     newd         :      7.18s CPU     10.58s WALL (      16 calls)
     PAW_pot      :      8.32s CPU      8.95s WALL (      16 calls)
     mix_rho      :      0.27s CPU      0.30s WALL (      15 calls)

     Called by c_bands:
     init_us_2    :      0.83s CPU      0.91s WALL (     330 calls)
     init_us_2:cp :      0.83s CPU      0.91s WALL (     330 calls)
     cegterg      :     37.66s CPU     40.97s WALL (     150 calls)

     Called by *egterg:
     cdiaghg      :      1.06s CPU      1.17s WALL (     855 calls)
     h_psi        :     30.11s CPU     32.78s WALL (     865 calls)
     s_psi        :      1.40s CPU      1.51s WALL (     865 calls)
     g_psi        :      0.18s CPU      0.20s WALL (     705 calls)

     Called by h_psi:
     h_psi:calbec :      1.60s CPU      1.74s WALL (     865 calls)
     vloc_psi     :     26.80s CPU     29.16s WALL (     865 calls)
     add_vuspsi   :      1.56s CPU      1.71s WALL (     865 calls)

     General routines
     calbec       :      2.17s CPU      2.37s WALL (    1065 calls)
     fft          :      1.13s CPU      1.24s WALL (     231 calls)
     ffts         :      0.15s CPU      0.16s WALL (      31 calls)
     fftw         :     28.44s CPU     30.95s WALL (   26130 calls)
     interpolate  :      0.20s CPU      0.22s WALL (      16 calls)

     Parallel routines

     PWSCF        :   1m22.93s CPU   1m36.64s WALL


   This run was terminated on:   2:58:20   6May2024            

=------------------------------------------------------------------------------=
   JOB DONE.
=------------------------------------------------------------------------------=
