
     Program PWSCF v.7.1 starts on  6May2024 at  2:51:29 

     This program is part of the open-source Quantum ESPRESSO suite
     for quantum simulation of materials; please cite
         "P. Giannozzi et al., J. Phys.:Condens. Matter 21 395502 (2009);
         "P. Giannozzi et al., J. Phys.:Condens. Matter 29 465901 (2017);
         "P. Giannozzi et al., J. Chem. Phys. 152 154105 (2020);
          URL http://www.quantum-espresso.org", 
     in publications or presentations arising from this work. More details at
     http://www.quantum-espresso.org/quote

     Parallel version (MPI), running on     2 processors

     MPI processes distributed on     1 nodes
     13799 MiB available memory on the printing compute node when the environment starts

     Waiting for input...
     Reading input from standard input
Warning: card &CELL ignored
Warning: card / ignored

     Current dimensions of program PWSCF are:
     Max number of different atomic species (ntypx) = 10
     Max number of k-points (npk) =  40000
     Max angular momentum in pseudopotentials (lmaxx) =  4
     file Ba.pbe-spn-kjpaw_psl.1.0.0.UPF: wavefunction(s)  5S 6S renormalized
     file Bi.pbe-dn-kjpaw_psl.1.0.0.UPF: wavefunction(s)  6P 5D renormalized
     file O.pbe-n-kjpaw_psl.1.0.0.UPF: wavefunction(s)  2S 2P renormalized
     Message from routine setup:
     using ibrav=0 with symmetry is DISCOURAGED, use correct ibrav instead

     R & G space division:  proc/nbgrp/npool/nimage =       2
     Subspace diagonalization in iterative solution of the eigenvalue problem:
     a serial algorithm will be used


     Parallelization info
     --------------------
     sticks:   dense  smooth     PW     G-vecs:    dense   smooth      PW
     Min        1554     774    218                64737    22908    3465
     Max        1555     775    219                64738    22909    3466
     Sum        3109    1549    437               129475    45817    6931

     Using Slab Decomposition



     bravais-lattice index     =            0
     lattice parameter (alat)  =       8.3337  a.u.
     unit-cell volume          =     578.7785 (a.u.)^3
     number of atoms/cell      =            5
     number of atomic types    =            3
     number of electrons       =        43.00
     number of Kohn-Sham states=           26
     kinetic-energy cutoff     =      70.0000  Ry
     charge density cutoff     =     560.0000  Ry
     scf convergence threshold =      1.0E-07
     mixing beta               =       0.7000
     number of iterations used =            8  plain     mixing
     Exchange-correlation= SLA  PW   PBX  PBC
                           (   1   4   3   4   0   0   0)

     celldm(1)=   8.333692  celldm(2)=   0.000000  celldm(3)=   0.000000
     celldm(4)=   0.000000  celldm(5)=   0.000000  celldm(6)=   0.000000

     crystal axes: (cart. coord. in units of alat)
               a(1) = (   1.000000   0.000000   0.000000 )  
               a(2) = (   0.000000   1.000000   0.000000 )  
               a(3) = (   0.000000   0.000000   1.000000 )  

     reciprocal axes: (cart. coord. in units 2 pi/alat)
               b(1) = (  1.000000  0.000000  0.000000 )  
               b(2) = (  0.000000  1.000000  0.000000 )  
               b(3) = (  0.000000  0.000000  1.000000 )  


     PseudoPot. # 1 for Ba read from file:
     /home/bond/Software/qe-7.1/pseudo/Ba.pbe-spn-kjpaw_psl.1.0.0.UPF
     MD5 check sum: 7cfe25f1fe7574a4710541d5a11d6531
     Pseudo is Projector augmented-wave + core cor, Zval = 10.0
     Generated using &quot;atomic&quot; code by A. Dal Corso  v.6.2.2
     Shape of augmentation charge: PSQ
     Using radial grid of 1251 points,  7 beta functions with: 
                l(1) =   0
                l(2) =   0
                l(3) =   0
                l(4) =   1
                l(5) =   1
                l(6) =   2
                l(7) =   2
     Q(r) pseudized with 0 coefficients 


     PseudoPot. # 2 for Bi read from file:
     /home/bond/Software/qe-7.1/pseudo/Bi.pbe-dn-kjpaw_psl.1.0.0.UPF
     MD5 check sum: 266ded784ae3bc462508ed03f0f37963
     Pseudo is Projector augmented-wave + core cor, Zval = 15.0
     Generated using &quot;atomic&quot; code by A. Dal Corso  v.6.2.2
     Shape of augmentation charge: PSQ
     Using radial grid of 1283 points,  6 beta functions with: 
                l(1) =   0
                l(2) =   0
                l(3) =   1
                l(4) =   1
                l(5) =   2
                l(6) =   2
     Q(r) pseudized with 0 coefficients 


     PseudoPot. # 3 for O  read from file:
     /home/bond/Software/qe-7.1/pseudo/O.pbe-n-kjpaw_psl.1.0.0.UPF
     MD5 check sum: e99d9cef9b487d1ca56f5b95ecd0fd7a
     Pseudo is Projector augmented-wave + core cor, Zval =  6.0
     Generated using &quot;atomic&quot; code by A. Dal Corso  v.6.3
     Shape of augmentation charge: PSQ
     Using radial grid of 1095 points,  4 beta functions with: 
                l(1) =   0
                l(2) =   0
                l(3) =   1
                l(4) =   1
     Q(r) pseudized with 0 coefficients 


     atomic species   valence    mass     pseudopotential
        Ba            10.00   137.32700     Ba( 1.00)
        Bi            15.00   208.98040     Bi( 1.00)
        O              6.00    15.99900     O ( 1.00)

     48 Sym. Ops., with inversion, found



   Cartesian axes

     site n.     atom                  positions (alat units)
         1           Ba  tau(   1) = (   0.5000000   0.5000000   0.5000000  )
         2           Bi  tau(   2) = (   0.0000000   0.0000000   0.0000000  )
         3           O   tau(   3) = (   0.0000000   0.0000000   0.5000000  )
         4           O   tau(   4) = (   0.5000000   0.0000000   0.0000000  )
         5           O   tau(   5) = (   0.0000000   0.5000000   0.0000000  )

     number of k points=    10  Methfessel-Paxton smearing, width (Ry)=  0.0200
                       cart. coord. in units 2pi/alat
        k(    1) = (   0.0000000   0.0000000   0.0000000), wk =   0.0160000
        k(    2) = (   0.0000000   0.0000000   0.2000000), wk =   0.0960000
        k(    3) = (   0.0000000   0.0000000   0.4000000), wk =   0.0960000
        k(    4) = (   0.0000000   0.2000000   0.2000000), wk =   0.1920000
        k(    5) = (   0.0000000   0.2000000   0.4000000), wk =   0.3840000
        k(    6) = (   0.0000000   0.4000000   0.4000000), wk =   0.1920000
        k(    7) = (   0.2000000   0.2000000   0.2000000), wk =   0.1280000
        k(    8) = (   0.2000000   0.2000000   0.4000000), wk =   0.3840000
        k(    9) = (   0.2000000   0.4000000   0.4000000), wk =   0.3840000
        k(   10) = (   0.4000000   0.4000000   0.4000000), wk =   0.1280000

     Dense  grid:   129475 G-vectors     FFT dimensions: (  64,  64,  64)

     Smooth grid:    45817 G-vectors     FFT dimensions: (  45,  45,  45)

     Estimated max dynamical RAM per process >     279.62 MB

     Estimated total dynamical RAM >     559.23 MB

     Initial potential from superposition of free atoms

     starting charge      42.9822, renormalised to      43.0000
     Starting wfcs are   26 randomized atomic wfcs
     Checking if some PAW data can be deallocated... 

     total cpu time spent up to now is        5.5 secs

     Self-consistent Calculation

     iteration #  1     ecut=    70.00 Ry     beta= 0.70
     Davidson diagonalization with overlap
     ethr =  1.00E-02,  avg # of iterations =  2.4

     total cpu time spent up to now is       10.1 secs

     total energy              =   -1466.63957768 Ry
     estimated scf accuracy    <       1.76066682 Ry

     iteration #  2     ecut=    70.00 Ry     beta= 0.70
     Davidson diagonalization with overlap
     ethr =  4.09E-03,  avg # of iterations =  6.7

     total cpu time spent up to now is       16.2 secs

     total energy              =   -1467.13606108 Ry
     estimated scf accuracy    <       3.83967993 Ry

     iteration #  3     ecut=    70.00 Ry     beta= 0.70
     Davidson diagonalization with overlap
     ethr =  4.09E-03,  avg # of iterations =  2.0

     total cpu time spent up to now is       21.1 secs

     total energy              =   -1467.39046279 Ry
     estimated scf accuracy    <       0.43270925 Ry

     iteration #  4     ecut=    70.00 Ry     beta= 0.70
     Davidson diagonalization with overlap
     ethr =  1.01E-03,  avg # of iterations =  5.8

     total cpu time spent up to now is       27.1 secs

     total energy              =   -1467.77977147 Ry
     estimated scf accuracy    <       0.20046464 Ry

     iteration #  5     ecut=    70.00 Ry     beta= 0.70
     Davidson diagonalization with overlap
     ethr =  4.66E-04,  avg # of iterations =  2.6

     total cpu time spent up to now is       31.7 secs

     total energy              =   -1467.74531184 Ry
     estimated scf accuracy    <       0.10320011 Ry

     iteration #  6     ecut=    70.00 Ry     beta= 0.70
     Davidson diagonalization with overlap
     ethr =  2.40E-04,  avg # of iterations =  4.9

     total cpu time spent up to now is       36.9 secs

     total energy              =   -1467.75885204 Ry
     estimated scf accuracy    <       0.00615536 Ry

     iteration #  7     ecut=    70.00 Ry     beta= 0.70
     Davidson diagonalization with overlap
     c_bands:  1 eigenvalues not converged
     ethr =  1.43E-05,  avg # of iterations = 13.1

     total cpu time spent up to now is       44.8 secs

     total energy              =   -1467.76710595 Ry
     estimated scf accuracy    <       0.00291150 Ry

     iteration #  8     ecut=    70.00 Ry     beta= 0.70
     Davidson diagonalization with overlap
     ethr =  6.77E-06,  avg # of iterations =  2.9

     total cpu time spent up to now is       49.5 secs

     total energy              =   -1467.76594657 Ry
     estimated scf accuracy    <       0.00275327 Ry

     iteration #  9     ecut=    70.00 Ry     beta= 0.70
     Davidson diagonalization with overlap
     ethr =  6.40E-06,  avg # of iterations =  4.6

     total cpu time spent up to now is       54.4 secs

     total energy              =   -1467.76618251 Ry
     estimated scf accuracy    <       0.00021479 Ry

     iteration # 10     ecut=    70.00 Ry     beta= 0.70
     Davidson diagonalization with overlap
     c_bands:  1 eigenvalues not converged
     ethr =  5.00E-07,  avg # of iterations =  7.5

     total cpu time spent up to now is       60.6 secs

     total energy              =   -1467.76642270 Ry
     estimated scf accuracy    <       0.00014549 Ry

     iteration # 11     ecut=    70.00 Ry     beta= 0.70
     Davidson diagonalization with overlap
     ethr =  3.38E-07,  avg # of iterations =  3.2

     total cpu time spent up to now is       65.2 secs

     total energy              =   -1467.76643222 Ry
     estimated scf accuracy    <       0.00001648 Ry

     iteration # 12     ecut=    70.00 Ry     beta= 0.70
     Davidson diagonalization with overlap
     ethr =  3.83E-08,  avg # of iterations =  5.2

     total cpu time spent up to now is       71.0 secs

     total energy              =   -1467.76644493 Ry
     estimated scf accuracy    <       0.00000315 Ry

     iteration # 13     ecut=    70.00 Ry     beta= 0.70
     Davidson diagonalization with overlap
     ethr =  7.32E-09,  avg # of iterations =  2.1

     total cpu time spent up to now is       75.6 secs

     total energy              =   -1467.76644524 Ry
     estimated scf accuracy    <       0.00000067 Ry

     iteration # 14     ecut=    70.00 Ry     beta= 0.70
     Davidson diagonalization with overlap
     ethr =  1.55E-09,  avg # of iterations =  4.5

     total cpu time spent up to now is       80.6 secs

     total energy              =   -1467.76644537 Ry
     estimated scf accuracy    <       0.00000041 Ry

     iteration # 15     ecut=    70.00 Ry     beta= 0.70
     Davidson diagonalization with overlap
     ethr =  9.47E-10,  avg # of iterations =  2.0

     total cpu time spent up to now is       85.3 secs

     total energy              =   -1467.76644529 Ry
     estimated scf accuracy    <       0.00000037 Ry

     iteration # 16     ecut=    70.00 Ry     beta= 0.70
     Davidson diagonalization with overlap
     ethr =  8.58E-10,  avg # of iterations =  2.1

     total cpu time spent up to now is       90.0 secs

     End of self-consistent calculation

          k = 0.0000 0.0000 0.0000 (  5743 PWs)   bands (ev):

   -17.1100 -12.9959 -12.9959 -12.5935 -12.5935 -12.5935  -8.7589  -6.3568
    -6.3568  -2.2264  -2.2264  -2.2264   3.5065   4.1772   4.1772   4.1772
     7.8035   7.8035   7.8035   8.0398   8.0398   8.0398  13.1766  13.1766
    14.2857  15.1334

          k = 0.0000 0.0000 0.2000 (  5698 PWs)   bands (ev):

   -17.1011 -12.9955 -12.9388 -12.5965 -12.5965 -12.5933  -8.6605  -6.6826
    -6.3525  -2.1984  -2.1984  -2.1799   2.1668   4.1824   4.1824   5.8808
     7.6104   7.7184   7.7184   7.9593   7.9593   8.1973  13.6425  13.6603
    14.9603  15.4610

          k = 0.0000 0.0000 0.4000 (  5734 PWs)   bands (ev):

   -17.0866 -12.9950 -12.8439 -12.6016 -12.6016 -12.5932  -8.3689  -7.3322
    -6.3456  -2.1522  -2.1522  -2.1249   1.3843   4.1829   4.1829   6.5421
     7.3375   7.6432   7.6432   7.7936   7.7936   9.6212  14.3580  14.4274
    15.4021  15.9311

          k = 0.0000 0.2000 0.2000 (  5734 PWs)   bands (ev):

   -17.0929 -12.9676 -12.9078 -12.5993 -12.5965 -12.5963  -8.5596  -6.8015
    -6.5258  -2.2259  -2.1745  -2.1391   1.2811   4.2192   5.1420   6.1147
     7.3188   7.6231   7.8187   7.8588   8.1448   8.4022  13.9414  14.1739
    15.1613  15.5438

          k = 0.0000 0.2000 0.4000 (  5721 PWs)   bands (ev):

   -17.0797 -12.9579 -12.8188 -12.6037 -12.6013 -12.5961  -8.2581  -7.3549
    -6.5823  -2.2071  -2.1529  -2.1350   0.5574   4.2750   5.5073   6.4733
     7.2140   7.5306   7.6562   7.7596   8.1074   9.8715  14.5620  14.8391
    15.5320  15.6945

          k = 0.0000 0.4000 0.4000 (  5726 PWs)   bands (ev):

   -17.0683 -12.9233 -12.7490 -12.6072 -12.6009 -12.6009  -7.9272  -7.4526
    -7.0700  -2.2585  -2.2299  -2.1067  -0.1881   4.4369   6.3038   7.0235
     7.2869   7.3624   7.4222   7.8535   8.4442  10.8833  14.7237  14.9323
    15.2534  15.4205

          k = 0.2000 0.2000 0.2000 (  5734 PWs)   bands (ev):

   -17.0853 -12.9074 -12.9074 -12.5995 -12.5995 -12.5988  -8.4602  -6.7889
    -6.7889  -2.2338  -2.2338  -2.0963   0.5320   5.1736   5.1736   6.2157
     7.3190   7.3190   8.0607   8.0763   8.0763   8.5962  14.2942  14.2944
    15.1243  15.5762

          k = 0.2000 0.2000 0.4000 (  5701 PWs)   bands (ev):

   -17.0729 -12.9068 -12.8067 -12.6047 -12.6031 -12.5991  -8.1603  -7.3600
    -6.7682  -2.2472  -2.2387  -2.1314  -0.1740   5.2207   5.8459   6.5090
     7.1248   7.3584   7.9297   7.9372   8.1717  10.0512  14.4114  14.7750
    15.3397  15.4554

          k = 0.2000 0.4000 0.4000 (  5750 PWs)   bands (ev):

   -17.0620 -12.8585 -12.7489 -12.6082 -12.6043 -12.6040  -7.8663  -7.4314
    -7.1588  -2.3118  -2.3025  -2.1941  -0.9260   5.6267   6.5281   7.0292
     7.1084   7.3614   7.9097   8.0705   8.4595  10.9815  14.0182  14.0973
    14.6466  15.6056

          k = 0.4000 0.4000 0.4000 (  5743 PWs)   bands (ev):

   -17.0516 -12.7486 -12.7486 -12.6098 -12.6098 -12.6089  -7.6851  -7.3964
    -7.3964  -2.3978  -2.3978  -2.3458  -1.7606   6.8798   7.0645   7.0645
     7.3636   7.3636   8.4007   8.4007   8.5143  11.5309  13.0863  13.0863
    13.7142  16.7890

     the Fermi energy is    10.0045 ev

!    total energy              =   -1467.76644530 Ry
     total all-electron energy =    -59784.858228 Ry
     estimated scf accuracy    <       0.00000006 Ry
     smearing contrib. (-TS)   =      -0.00132447 Ry
     internal energy E=F+TS    =   -1467.76512083 Ry

     The total energy is F=E-TS. E is the sum of the following terms:
     one-electron contribution =     -82.64998766 Ry
     hartree contribution      =      73.28232292 Ry
     xc contribution           =     -75.31795937 Ry
     ewald contribution        =    -222.76638011 Ry
     one-center paw contrib.   =   -1160.31311660 Ry

     convergence has been achieved in  16 iterations

     Forces acting on atoms (cartesian axes, Ry/au):

     atom    1 type  1   force =     0.00000000    0.00000000    0.00000000
     atom    2 type  2   force =     0.00000000    0.00000000    0.00000000
     atom    3 type  3   force =     0.00000000    0.00000000    0.00000000
     atom    4 type  3   force =     0.00000000    0.00000000    0.00000000
     atom    5 type  3   force =     0.00000000    0.00000000    0.00000000

     Total force =     0.000000     Total SCF correction =     0.000000


     Computing stress (Cartesian axis) and pressure

          total   stress  (Ry/bohr**3)                   (kbar)     P=        9.24
   0.00006278   0.00000000   0.00000000            9.24        0.00        0.00
   0.00000000   0.00006278   0.00000000            0.00        9.24        0.00
   0.00000000   0.00000000   0.00006278            0.00        0.00        9.24


     init_run     :      3.67s CPU      4.37s WALL (       1 calls)
     electrons    :     72.82s CPU     84.50s WALL (       1 calls)
     forces       :      1.18s CPU      1.42s WALL (       1 calls)
     stress       :      6.80s CPU      7.79s WALL (       1 calls)

     Called by init_run:
     wfcinit      :      0.89s CPU      0.97s WALL (       1 calls)
     potinit      :      0.84s CPU      1.00s WALL (       1 calls)
     hinit0       :      1.34s CPU      1.48s WALL (       1 calls)

     Called by electrons:
     c_bands      :     40.59s CPU     43.95s WALL (      16 calls)
     sum_band     :     14.68s CPU     18.97s WALL (      16 calls)
     v_of_rho     :      1.82s CPU      2.00s WALL (      17 calls)
     newd         :      7.43s CPU     10.92s WALL (      17 calls)
     PAW_pot      :      8.95s CPU      9.65s WALL (      17 calls)
     mix_rho      :      0.29s CPU      0.32s WALL (      16 calls)

     Called by c_bands:
     init_us_2    :      0.88s CPU      0.96s WALL (     350 calls)
     init_us_2:cp :      0.87s CPU      0.96s WALL (     350 calls)
     cegterg      :     38.64s CPU     41.85s WALL (     160 calls)

     Called by *egterg:
     cdiaghg      :      1.07s CPU      1.18s WALL (     876 calls)
     h_psi        :     31.12s CPU     33.74s WALL (     886 calls)
     s_psi        :      1.39s CPU      1.50s WALL (     886 calls)
     g_psi        :      0.17s CPU      0.19s WALL (     716 calls)

     Called by h_psi:
     h_psi:calbec :      1.59s CPU      1.72s WALL (     886 calls)
     vloc_psi     :     27.77s CPU     30.07s WALL (     886 calls)
     add_vuspsi   :      1.60s CPU      1.75s WALL (     886 calls)

     General routines
     calbec       :      2.19s CPU      2.38s WALL (    1096 calls)
     fft          :      1.23s CPU      1.35s WALL (     244 calls)
     ffts         :      0.15s CPU      0.17s WALL (      33 calls)
     fftw         :     29.53s CPU     31.99s WALL (   26920 calls)
     interpolate  :      0.21s CPU      0.24s WALL (      17 calls)

     Parallel routines

     PWSCF        :   1m25.45s CPU   1m39.19s WALL


   This run was terminated on:   2:53: 8   6May2024            

=------------------------------------------------------------------------------=
   JOB DONE.
=------------------------------------------------------------------------------=
