
     Program PWSCF v.7.1 starts on  6May2024 at  2:40:50 

     This program is part of the open-source Quantum ESPRESSO suite
     for quantum simulation of materials; please cite
         "P. Giannozzi et al., J. Phys.:Condens. Matter 21 395502 (2009);
         "P. Giannozzi et al., J. Phys.:Condens. Matter 29 465901 (2017);
         "P. Giannozzi et al., J. Chem. Phys. 152 154105 (2020);
          URL http://www.quantum-espresso.org", 
     in publications or presentations arising from this work. More details at
     http://www.quantum-espresso.org/quote

     Parallel version (MPI), running on     2 processors

     MPI processes distributed on     1 nodes
     13799 MiB available memory on the printing compute node when the environment starts

     Waiting for input...
     Reading input from standard input
Warning: card &CELL ignored
Warning: card / ignored

     Current dimensions of program PWSCF are:
     Max number of different atomic species (ntypx) = 10
     Max number of k-points (npk) =  40000
     Max angular momentum in pseudopotentials (lmaxx) =  4
     file Ba.pbe-spn-kjpaw_psl.1.0.0.UPF: wavefunction(s)  5S 6S renormalized
     file Bi.pbe-dn-kjpaw_psl.1.0.0.UPF: wavefunction(s)  6P 5D renormalized
     file O.pbe-n-kjpaw_psl.1.0.0.UPF: wavefunction(s)  2S 2P renormalized
     Message from routine setup:
     using ibrav=0 with symmetry is DISCOURAGED, use correct ibrav instead

     R & G space division:  proc/nbgrp/npool/nimage =       2
     Subspace diagonalization in iterative solution of the eigenvalue problem:
     a serial algorithm will be used


     Parallelization info
     --------------------
     sticks:   dense  smooth     PW     G-vecs:    dense   smooth      PW
     Min        1508     752    214                62411    22029    3333
     Max        1509     753    215                62412    22030    3334
     Sum        3017    1505    429               124823    44059    6667

     Using Slab Decomposition



     bravais-lattice index     =            0
     lattice parameter (alat)  =       8.2392  a.u.
     unit-cell volume          =     559.3145 (a.u.)^3
     number of atoms/cell      =            5
     number of atomic types    =            3
     number of electrons       =        43.00
     number of Kohn-Sham states=           26
     kinetic-energy cutoff     =      70.0000  Ry
     charge density cutoff     =     560.0000  Ry
     scf convergence threshold =      1.0E-07
     mixing beta               =       0.7000
     number of iterations used =            8  plain     mixing
     Exchange-correlation= SLA  PW   PBX  PBC
                           (   1   4   3   4   0   0   0)

     celldm(1)=   8.239206  celldm(2)=   0.000000  celldm(3)=   0.000000
     celldm(4)=   0.000000  celldm(5)=   0.000000  celldm(6)=   0.000000

     crystal axes: (cart. coord. in units of alat)
               a(1) = (   1.000000   0.000000   0.000000 )  
               a(2) = (   0.000000   1.000000   0.000000 )  
               a(3) = (   0.000000   0.000000   1.000000 )  

     reciprocal axes: (cart. coord. in units 2 pi/alat)
               b(1) = (  1.000000  0.000000  0.000000 )  
               b(2) = (  0.000000  1.000000  0.000000 )  
               b(3) = (  0.000000  0.000000  1.000000 )  


     PseudoPot. # 1 for Ba read from file:
     /home/bond/Software/qe-7.1/pseudo/Ba.pbe-spn-kjpaw_psl.1.0.0.UPF
     MD5 check sum: 7cfe25f1fe7574a4710541d5a11d6531
     Pseudo is Projector augmented-wave + core cor, Zval = 10.0
     Generated using &quot;atomic&quot; code by A. Dal Corso  v.6.2.2
     Shape of augmentation charge: PSQ
     Using radial grid of 1251 points,  7 beta functions with: 
                l(1) =   0
                l(2) =   0
                l(3) =   0
                l(4) =   1
                l(5) =   1
                l(6) =   2
                l(7) =   2
     Q(r) pseudized with 0 coefficients 


     PseudoPot. # 2 for Bi read from file:
     /home/bond/Software/qe-7.1/pseudo/Bi.pbe-dn-kjpaw_psl.1.0.0.UPF
     MD5 check sum: 266ded784ae3bc462508ed03f0f37963
     Pseudo is Projector augmented-wave + core cor, Zval = 15.0
     Generated using &quot;atomic&quot; code by A. Dal Corso  v.6.2.2
     Shape of augmentation charge: PSQ
     Using radial grid of 1283 points,  6 beta functions with: 
                l(1) =   0
                l(2) =   0
                l(3) =   1
                l(4) =   1
                l(5) =   2
                l(6) =   2
     Q(r) pseudized with 0 coefficients 


     PseudoPot. # 3 for O  read from file:
     /home/bond/Software/qe-7.1/pseudo/O.pbe-n-kjpaw_psl.1.0.0.UPF
     MD5 check sum: e99d9cef9b487d1ca56f5b95ecd0fd7a
     Pseudo is Projector augmented-wave + core cor, Zval =  6.0
     Generated using &quot;atomic&quot; code by A. Dal Corso  v.6.3
     Shape of augmentation charge: PSQ
     Using radial grid of 1095 points,  4 beta functions with: 
                l(1) =   0
                l(2) =   0
                l(3) =   1
                l(4) =   1
     Q(r) pseudized with 0 coefficients 


     atomic species   valence    mass     pseudopotential
        Ba            10.00   137.32700     Ba( 1.00)
        Bi            15.00   208.98040     Bi( 1.00)
        O              6.00    15.99900     O ( 1.00)

     48 Sym. Ops., with inversion, found



   Cartesian axes

     site n.     atom                  positions (alat units)
         1           Ba  tau(   1) = (   0.5000000   0.5000000   0.5000000  )
         2           Bi  tau(   2) = (   0.0000000   0.0000000   0.0000000  )
         3           O   tau(   3) = (   0.0000000   0.0000000   0.5000000  )
         4           O   tau(   4) = (   0.5000000   0.0000000   0.0000000  )
         5           O   tau(   5) = (   0.0000000   0.5000000   0.0000000  )

     number of k points=    10  Methfessel-Paxton smearing, width (Ry)=  0.0200
                       cart. coord. in units 2pi/alat
        k(    1) = (   0.0000000   0.0000000   0.0000000), wk =   0.0160000
        k(    2) = (   0.0000000   0.0000000   0.2000000), wk =   0.0960000
        k(    3) = (   0.0000000   0.0000000   0.4000000), wk =   0.0960000
        k(    4) = (   0.0000000   0.2000000   0.2000000), wk =   0.1920000
        k(    5) = (   0.0000000   0.2000000   0.4000000), wk =   0.3840000
        k(    6) = (   0.0000000   0.4000000   0.4000000), wk =   0.1920000
        k(    7) = (   0.2000000   0.2000000   0.2000000), wk =   0.1280000
        k(    8) = (   0.2000000   0.2000000   0.4000000), wk =   0.3840000
        k(    9) = (   0.2000000   0.4000000   0.4000000), wk =   0.3840000
        k(   10) = (   0.4000000   0.4000000   0.4000000), wk =   0.1280000

     Dense  grid:   124823 G-vectors     FFT dimensions: (  64,  64,  64)

     Smooth grid:    44059 G-vectors     FFT dimensions: (  45,  45,  45)

     Estimated max dynamical RAM per process >     270.20 MB

     Estimated total dynamical RAM >     540.41 MB

     Initial potential from superposition of free atoms

     starting charge      42.9822, renormalised to      43.0000
     Starting wfcs are   26 randomized atomic wfcs
     Checking if some PAW data can be deallocated... 

     total cpu time spent up to now is        7.1 secs

     Self-consistent Calculation

     iteration #  1     ecut=    70.00 Ry     beta= 0.70
     Davidson diagonalization with overlap
     ethr =  1.00E-02,  avg # of iterations =  4.2

     total cpu time spent up to now is       13.8 secs

     total energy              =   -1466.68271029 Ry
     estimated scf accuracy    <       1.70653401 Ry

     iteration #  2     ecut=    70.00 Ry     beta= 0.70
     Davidson diagonalization with overlap
     ethr =  3.97E-03,  avg # of iterations =  6.3

     total cpu time spent up to now is       22.6 secs

     total energy              =   -1467.15471843 Ry
     estimated scf accuracy    <       3.60706006 Ry

     iteration #  3     ecut=    70.00 Ry     beta= 0.70
     Davidson diagonalization with overlap
     ethr =  3.97E-03,  avg # of iterations =  2.6

     total cpu time spent up to now is       29.6 secs

     total energy              =   -1467.41236087 Ry
     estimated scf accuracy    <       0.40091715 Ry

     iteration #  4     ecut=    70.00 Ry     beta= 0.70
     Davidson diagonalization with overlap
     ethr =  9.32E-04,  avg # of iterations =  5.3

     total cpu time spent up to now is       38.5 secs

     total energy              =   -1467.76770656 Ry
     estimated scf accuracy    <       0.15822587 Ry

     iteration #  5     ecut=    70.00 Ry     beta= 0.70
     Davidson diagonalization with overlap
     ethr =  3.68E-04,  avg # of iterations =  2.7

     total cpu time spent up to now is       45.4 secs

     total energy              =   -1467.74097318 Ry
     estimated scf accuracy    <       0.07351072 Ry

     iteration #  6     ecut=    70.00 Ry     beta= 0.70
     Davidson diagonalization with overlap
     c_bands:  3 eigenvalues not converged
     ethr =  1.71E-04,  avg # of iterations =  8.3

     total cpu time spent up to now is       53.4 secs

     total energy              =   -1467.75704334 Ry
     estimated scf accuracy    <       0.00064284 Ry

     iteration #  7     ecut=    70.00 Ry     beta= 0.70
     Davidson diagonalization with overlap
     c_bands:  1 eigenvalues not converged
     c_bands:  1 eigenvalues not converged
     c_bands:  1 eigenvalues not converged
     c_bands:  3 eigenvalues not converged
     c_bands:  1 eigenvalues not converged
     c_bands:  1 eigenvalues not converged
     ethr =  1.49E-06,  avg # of iterations = 16.3

     total cpu time spent up to now is       66.8 secs

     total energy              =   -1467.76334683 Ry
     estimated scf accuracy    <       0.00616668 Ry

     iteration #  8     ecut=    70.00 Ry     beta= 0.70
     Davidson diagonalization with overlap
     ethr =  1.49E-06,  avg # of iterations =  6.2

     total cpu time spent up to now is       73.8 secs

     total energy              =   -1467.76115776 Ry
     estimated scf accuracy    <       0.00536718 Ry

     iteration #  9     ecut=    70.00 Ry     beta= 0.70
     Davidson diagonalization with overlap
     ethr =  1.49E-06,  avg # of iterations =  5.3

     total cpu time spent up to now is       82.4 secs

     total energy              =   -1467.76207259 Ry
     estimated scf accuracy    <       0.00001969 Ry

     iteration # 10     ecut=    70.00 Ry     beta= 0.70
     Davidson diagonalization with overlap
     ethr =  4.58E-08,  avg # of iterations =  6.9

     total cpu time spent up to now is       91.1 secs

     total energy              =   -1467.76209336 Ry
     estimated scf accuracy    <       0.00001642 Ry

     iteration # 11     ecut=    70.00 Ry     beta= 0.70
     Davidson diagonalization with overlap
     ethr =  3.82E-08,  avg # of iterations =  2.0

     total cpu time spent up to now is       98.0 secs

     total energy              =   -1467.76209643 Ry
     estimated scf accuracy    <       0.00000119 Ry

     iteration # 12     ecut=    70.00 Ry     beta= 0.70
     Davidson diagonalization with overlap
     ethr =  2.76E-09,  avg # of iterations =  9.6

     total cpu time spent up to now is      109.1 secs

     total energy              =   -1467.76208960 Ry
     estimated scf accuracy    <       0.00006274 Ry

     iteration # 13     ecut=    70.00 Ry     beta= 0.70
     Davidson diagonalization with overlap
     ethr =  2.76E-09,  avg # of iterations =  7.3

     total cpu time spent up to now is      118.6 secs

     total energy              =   -1467.76209613 Ry
     estimated scf accuracy    <       0.00000217 Ry

     iteration # 14     ecut=    70.00 Ry     beta= 0.70
     Davidson diagonalization with overlap
     ethr =  2.76E-09,  avg # of iterations =  5.0

     total cpu time spent up to now is      127.1 secs

     End of self-consistent calculation

          k = 0.0000 0.0000 0.0000 (  5497 PWs)   bands (ev):

   -16.5554 -12.5165 -12.5165 -12.0407 -12.0407 -12.0407  -8.4859  -5.8743
    -5.8743  -1.6875  -1.6875  -1.6875   4.2780   4.5109   4.5109   4.5109
     8.1909   8.1909   8.1909   8.4650   8.4650   8.4650  13.6546  13.6546
    14.9474  15.6839

          k = 0.0000 0.0000 0.2000 (  5526 PWs)   bands (ev):

   -16.5445 -12.5160 -12.4507 -12.0445 -12.0445 -12.0407  -8.3851  -6.2411
    -5.8695  -1.6539  -1.6539  -1.6292   2.7369   4.5103   4.5103   6.3819
     7.9854   8.1034   8.1034   8.3793   8.3793   8.6809  14.1457  14.1680
    15.6413  16.0398

          k = 0.0000 0.0000 0.4000 (  5530 PWs)   bands (ev):

   -16.5268 -12.5152 -12.3413 -12.0505 -12.0505 -12.0405  -8.0755  -6.9660
    -5.8617  -1.5984  -1.5984  -1.5619   1.9546   4.4994   4.4994   6.9324
     7.6962   8.0291   8.0291   8.2049   8.2049  10.2733  14.9655  14.9733
    15.9605  16.5598

          k = 0.0000 0.2000 0.2000 (  5517 PWs)   bands (ev):

   -16.5346 -12.4838 -12.4145 -12.0478 -12.0445 -12.0441  -8.2812  -6.3747
    -6.0648  -1.6818  -1.6254  -1.5818   1.7857   4.5452   5.5227   6.5771
     7.6918   8.0047   8.2135   8.2715   8.5732   8.9469  14.4587  14.7033
    15.8013  16.1280

          k = 0.0000 0.2000 0.4000 (  5522 PWs)   bands (ev):

   -16.5184 -12.4727 -12.3111 -12.0531 -12.0502 -12.0440  -7.9610  -6.9921
    -6.1282  -1.6589  -1.5957  -1.5783   1.0530   4.5963   5.9113   6.8487
     7.5937   7.9122   8.0553   8.1638   8.5239  10.5428  15.1409  15.4673
    16.1469  16.2795

          k = 0.0000 0.4000 0.4000 (  5520 PWs)   bands (ev):

   -16.5048 -12.4334 -12.2277 -12.0571 -12.0498 -12.0497  -7.6117  -7.1031
    -6.6714  -1.7160  -1.6837  -1.5454   0.2840   4.7665   6.6572   7.4604
     7.6908   7.7367   7.8033   8.2992   8.8699  11.6101  15.3479  15.6842
    15.8464  16.1398

          k = 0.2000 0.2000 0.2000 (  5521 PWs)   bands (ev):

   -16.5253 -12.4141 -12.4141 -12.0480 -12.0480 -12.0471  -8.1786  -6.3603
    -6.3603  -1.6910  -1.6910  -1.5318   0.9864   5.5520   5.5520   6.6384
     7.6977   7.6977   8.4615   8.5004   8.5004   9.1980  14.8305  14.8305
    15.7440  16.1827

          k = 0.2000 0.2000 0.4000 (  5545 PWs)   bands (ev):

   -16.5103 -12.4134 -12.2967 -12.0543 -12.0523 -12.0477  -7.8597  -6.9983
    -6.3368  -1.7065  -1.6947  -1.5720   0.2641   5.5937   6.2672   6.8853
     7.5113   7.7508   8.3415   8.3489   8.5820  10.7389  15.0576  15.3525
    15.9466  16.0756

          k = 0.2000 0.4000 0.4000 (  5546 PWs)   bands (ev):

   -16.4972 -12.3573 -12.2275 -12.0584 -12.0538 -12.0534  -7.5486  -7.0793
    -6.7720  -1.7778  -1.7687  -1.6447  -0.5196   6.0272   6.9021   7.4522
     7.5109   7.7867   8.3153   8.4987   8.8848  11.7115  14.6775  14.7352
    15.2742  16.2015

          k = 0.4000 0.4000 0.4000 (  5562 PWs)   bands (ev):

   -16.4849 -12.2272 -12.2272 -12.0605 -12.0605 -12.0593  -7.3564  -7.0400
    -7.0400  -1.8774  -1.8774  -1.8190  -1.4055   7.2850   7.4838   7.4838
     7.8268   7.8268   8.8270   8.8270   8.9403  12.2497  13.6952  13.6952
    14.3973  17.1780

     the Fermi energy is    10.6859 ev

!    total energy              =   -1467.76209673 Ry
     total all-electron energy =    -59784.853879 Ry
     estimated scf accuracy    <       0.00000010 Ry
     smearing contrib. (-TS)   =      -0.00123336 Ry
     internal energy E=F+TS    =   -1467.76086337 Ry

     The total energy is F=E-TS. E is the sum of the following terms:
     one-electron contribution =     -78.91816179 Ry
     hartree contribution      =      72.22518103 Ry
     xc contribution           =     -75.42453149 Ry
     ewald contribution        =    -225.32104043 Ry
     one-center paw contrib.   =   -1160.32231070 Ry

     convergence has been achieved in  14 iterations

     Forces acting on atoms (cartesian axes, Ry/au):

     atom    1 type  1   force =     0.00000000    0.00000000    0.00000000
     atom    2 type  2   force =     0.00000000    0.00000000    0.00000000
     atom    3 type  3   force =     0.00000000    0.00000000    0.00000000
     atom    4 type  3   force =     0.00000000    0.00000000    0.00000000
     atom    5 type  3   force =     0.00000000    0.00000000    0.00000000

     Total force =     0.000000     Total SCF correction =     0.000000


     Computing stress (Cartesian axis) and pressure

          total   stress  (Ry/bohr**3)                   (kbar)     P=       51.38
   0.00034931   0.00000000   0.00000000           51.38        0.00        0.00
   0.00000000   0.00034931   0.00000000            0.00       51.38        0.00
   0.00000000   0.00000000   0.00034931            0.00        0.00       51.38


     init_run     :      5.02s CPU      5.76s WALL (       1 calls)
     electrons    :     98.83s CPU    119.92s WALL (       1 calls)
     forces       :      1.08s CPU      1.92s WALL (       1 calls)
     stress       :      6.29s CPU     10.87s WALL (       1 calls)

     Called by init_run:
     wfcinit      :      1.27s CPU      1.34s WALL (       1 calls)
     potinit      :      0.94s CPU      1.09s WALL (       1 calls)
     hinit0       :      2.13s CPU      2.22s WALL (       1 calls)

     Called by electrons:
     c_bands      :     63.40s CPU     72.85s WALL (      14 calls)
     sum_band     :     17.89s CPU     23.41s WALL (      14 calls)
     v_of_rho     :      2.14s CPU      2.52s WALL (      15 calls)
     newd         :      7.98s CPU     12.31s WALL (      15 calls)
     PAW_pot      :      8.13s CPU      9.97s WALL (      15 calls)
     mix_rho      :      0.32s CPU      0.37s WALL (      14 calls)

     Called by c_bands:
     init_us_2    :      0.76s CPU      0.93s WALL (     310 calls)
     init_us_2:cp :      0.75s CPU      0.93s WALL (     310 calls)
     cegterg      :     61.37s CPU     70.51s WALL (     140 calls)

     Called by *egterg:
     cdiaghg      :      1.31s CPU      1.57s WALL (    1020 calls)
     h_psi        :     48.39s CPU     55.59s WALL (    1030 calls)
     s_psi        :      1.57s CPU      1.86s WALL (    1030 calls)
     g_psi        :      0.20s CPU      0.23s WALL (     880 calls)

     Called by h_psi:
     h_psi:calbec :      2.52s CPU      2.96s WALL (    1030 calls)
     vloc_psi     :     43.91s CPU     50.34s WALL (    1030 calls)
     add_vuspsi   :      1.79s CPU      2.07s WALL (    1030 calls)

     General routines
     calbec       :      3.23s CPU      3.93s WALL (    1220 calls)
     fft          :      1.99s CPU      2.28s WALL (     218 calls)
     ffts         :      0.16s CPU      0.20s WALL (      29 calls)
     fftw         :     46.78s CPU     53.98s WALL (   28332 calls)
     interpolate  :      0.23s CPU      0.29s WALL (      15 calls)

     Parallel routines

     PWSCF        :   1m52.14s CPU   2m19.86s WALL


   This run was terminated on:   2:43:10   6May2024            

=------------------------------------------------------------------------------=
   JOB DONE.
=------------------------------------------------------------------------------=
