
     Program PWSCF v.7.1 starts on  6May2024 at 22:56:58 

     This program is part of the open-source Quantum ESPRESSO suite
     for quantum simulation of materials; please cite
         "P. Giannozzi et al., J. Phys.:Condens. Matter 21 395502 (2009);
         "P. Giannozzi et al., J. Phys.:Condens. Matter 29 465901 (2017);
         "P. Giannozzi et al., J. Chem. Phys. 152 154105 (2020);
          URL http://www.quantum-espresso.org", 
     in publications or presentations arising from this work. More details at
     http://www.quantum-espresso.org/quote

     Parallel version (MPI), running on     2 processors

     MPI processes distributed on     1 nodes
     13578 MiB available memory on the printing compute node when the environment starts

     Waiting for input...
     Reading input from standard input
Warning: card &CELL ignored
Warning: card / ignored

     Current dimensions of program PWSCF are:
     Max number of different atomic species (ntypx) = 10
     Max number of k-points (npk) =  40000
     Max angular momentum in pseudopotentials (lmaxx) =  4
     file Ba.pbe-spn-kjpaw_psl.1.0.0.UPF: wavefunction(s)  5S 6S renormalized
     file Bi.pbe-dn-kjpaw_psl.1.0.0.UPF: wavefunction(s)  6P 5D renormalized
     file F.pbe-n-kjpaw_psl.1.0.0.UPF: wavefunction(s)  2S 2P renormalized
     file O.pbe-n-kjpaw_psl.1.0.0.UPF: wavefunction(s)  2S 2P renormalized
     Message from routine setup:
     using ibrav=0 with symmetry is DISCOURAGED, use correct ibrav instead

     R & G space division:  proc/nbgrp/npool/nimage =       2
     Subspace diagonalization in iterative solution of the eigenvalue problem:
     a serial algorithm will be used


     Parallelization info
     --------------------
     sticks:   dense  smooth     PW     G-vecs:    dense   smooth      PW
     Min        1682     842    240                73482    25932    3904
     Max        1683     843    241                73483    25935    3905
     Sum        3365    1685    481               146965    51867    7809

     Using Slab Decomposition



     bravais-lattice index     =            0
     lattice parameter (alat)  =       8.6927  a.u.
     unit-cell volume          =     656.8559 (a.u.)^3
     number of atoms/cell      =            5
     number of atomic types    =            4
     number of electrons       =        44.00
     number of Kohn-Sham states=           26
     kinetic-energy cutoff     =      70.0000  Ry
     charge density cutoff     =     560.0000  Ry
     scf convergence threshold =      1.0E-07
     mixing beta               =       0.7000
     number of iterations used =            8  plain     mixing
     energy convergence thresh.=      1.0E-04
     force convergence thresh. =      1.0E-03
     Exchange-correlation= SLA  PW   PBX  PBC
                           (   1   4   3   4   0   0   0)
     nstep                     =           50


     celldm(1)=   8.692740  celldm(2)=   0.000000  celldm(3)=   0.000000
     celldm(4)=   0.000000  celldm(5)=   0.000000  celldm(6)=   0.000000

     crystal axes: (cart. coord. in units of alat)
               a(1) = (   1.000000   0.000000   0.000000 )  
               a(2) = (   0.000000   1.000000   0.000000 )  
               a(3) = (   0.000000   0.000000   1.000000 )  

     reciprocal axes: (cart. coord. in units 2 pi/alat)
               b(1) = (  1.000000  0.000000  0.000000 )  
               b(2) = (  0.000000  1.000000  0.000000 )  
               b(3) = (  0.000000  0.000000  1.000000 )  


     PseudoPot. # 1 for Ba read from file:
     /home/bond/Software/qe-7.1/pseudo/Ba.pbe-spn-kjpaw_psl.1.0.0.UPF
     MD5 check sum: 7cfe25f1fe7574a4710541d5a11d6531
     Pseudo is Projector augmented-wave + core cor, Zval = 10.0
     Generated using &quot;atomic&quot; code by A. Dal Corso  v.6.2.2
     Shape of augmentation charge: PSQ
     Using radial grid of 1251 points,  7 beta functions with: 
                l(1) =   0
                l(2) =   0
                l(3) =   0
                l(4) =   1
                l(5) =   1
                l(6) =   2
                l(7) =   2
     Q(r) pseudized with 0 coefficients 


     PseudoPot. # 2 for Bi read from file:
     /home/bond/Software/qe-7.1/pseudo/Bi.pbe-dn-kjpaw_psl.1.0.0.UPF
     MD5 check sum: 266ded784ae3bc462508ed03f0f37963
     Pseudo is Projector augmented-wave + core cor, Zval = 15.0
     Generated using &quot;atomic&quot; code by A. Dal Corso  v.6.2.2
     Shape of augmentation charge: PSQ
     Using radial grid of 1283 points,  6 beta functions with: 
                l(1) =   0
                l(2) =   0
                l(3) =   1
                l(4) =   1
                l(5) =   2
                l(6) =   2
     Q(r) pseudized with 0 coefficients 


     PseudoPot. # 3 for F  read from file:
     /home/bond/Software/qe-7.1/pseudo/F.pbe-n-kjpaw_psl.1.0.0.UPF
     MD5 check sum: 66d718ea72839a4268ab2a9540e8cdd4
     Pseudo is Projector augmented-wave + core cor, Zval =  7.0
     Generated using &quot;atomic&quot; code by A. Dal Corso  v.6.3
     Shape of augmentation charge: PSQ
     Using radial grid of 1105 points,  4 beta functions with: 
                l(1) =   0
                l(2) =   0
                l(3) =   1
                l(4) =   1
     Q(r) pseudized with 0 coefficients 


     PseudoPot. # 4 for O  read from file:
     /home/bond/Software/qe-7.1/pseudo/O.pbe-n-kjpaw_psl.1.0.0.UPF
     MD5 check sum: e99d9cef9b487d1ca56f5b95ecd0fd7a
     Pseudo is Projector augmented-wave + core cor, Zval =  6.0
     Generated using &quot;atomic&quot; code by A. Dal Corso  v.6.3
     Shape of augmentation charge: PSQ
     Using radial grid of 1095 points,  4 beta functions with: 
                l(1) =   0
                l(2) =   0
                l(3) =   1
                l(4) =   1
     Q(r) pseudized with 0 coefficients 


     atomic species   valence    mass     pseudopotential
        Ba            10.00   137.32700     Ba( 1.00)
        Bi            15.00   208.98040     Bi( 1.00)
        F              7.00    18.99840     F ( 1.00)
        O              6.00    15.99900     O ( 1.00)

     16 Sym. Ops., with inversion, found



   Cartesian axes

     site n.     atom                  positions (alat units)
         1           Ba  tau(   1) = (   0.5000000   0.5000000   0.5000000  )
         2           Bi  tau(   2) = (   0.0000000   0.0000000   0.0000000  )
         3           O   tau(   3) = (   0.0000000   0.0000000   0.5000000  )
         4           O   tau(   4) = (   0.5000000   0.0000000   0.0000000  )
         5           F   tau(   5) = (   0.0000000   0.5000000   0.0000000  )

     number of k points=    18  Gaussian smearing, width (Ry)=  0.0200
                       cart. coord. in units 2pi/alat
        k(    1) = (   0.0000000   0.0000000   0.0000000), wk =   0.0160000
        k(    2) = (   0.0000000   0.0000000   0.2000000), wk =   0.0640000
        k(    3) = (   0.0000000   0.0000000   0.4000000), wk =   0.0640000
        k(    4) = (   0.0000000   0.2000000   0.2000000), wk =   0.1280000
        k(    5) = (   0.0000000   0.2000000   0.4000000), wk =   0.1280000
        k(    6) = (   0.0000000   0.4000000   0.4000000), wk =   0.1280000
        k(    7) = (   0.2000000   0.2000000   0.2000000), wk =   0.1280000
        k(    8) = (   0.2000000   0.2000000   0.4000000), wk =   0.2560000
        k(    9) = (   0.2000000   0.4000000   0.4000000), wk =   0.2560000
        k(   10) = (   0.4000000   0.4000000   0.4000000), wk =   0.1280000
        k(   11) = (   0.0000000   0.2000000   0.0000000), wk =   0.0320000
        k(   12) = (   0.0000000   0.4000000   0.0000000), wk =   0.0320000
        k(   13) = (   0.2000000   0.0000000   0.2000000), wk =   0.0640000
        k(   14) = (   0.2000000   0.4000000   0.0000000), wk =   0.1280000
        k(   15) = (   0.4000000   0.0000000   0.2000000), wk =   0.1280000
        k(   16) = (   0.4000000   0.0000000   0.4000000), wk =   0.0640000
        k(   17) = (   0.2000000   0.4000000   0.2000000), wk =   0.1280000
        k(   18) = (   0.4000000   0.2000000   0.4000000), wk =   0.1280000

     Dense  grid:   146965 G-vectors     FFT dimensions: (  72,  72,  72)

     Smooth grid:    51867 G-vectors     FFT dimensions: (  48,  48,  48)

     Estimated max dynamical RAM per process >     334.04 MB

     Estimated total dynamical RAM >     668.08 MB

     Initial potential from superposition of free atoms

     starting charge      43.9822, renormalised to      44.0000
     Starting wfcs are   26 randomized atomic wfcs
     Checking if some PAW data can be deallocated... 

     total cpu time spent up to now is        9.7 secs

     Self-consistent Calculation

     iteration #  1     ecut=    70.00 Ry     beta= 0.70
     Davidson diagonalization with overlap
     ethr =  1.00E-02,  avg # of iterations =  3.1

     total cpu time spent up to now is       20.0 secs

     total energy              =   -1484.41849231 Ry
     estimated scf accuracy    <       1.82860343 Ry

     iteration #  2     ecut=    70.00 Ry     beta= 0.70
     Davidson diagonalization with overlap
     ethr =  4.16E-03,  avg # of iterations =  8.4

     total cpu time spent up to now is       35.6 secs

     total energy              =   -1483.81097451 Ry
     estimated scf accuracy    <       9.94338251 Ry

     iteration #  3     ecut=    70.00 Ry     beta= 0.70
     Davidson diagonalization with overlap
     ethr =  4.16E-03,  avg # of iterations =  5.6

     total cpu time spent up to now is       49.0 secs

     total energy              =   -1485.50826317 Ry
     estimated scf accuracy    <       0.22799286 Ry

     iteration #  4     ecut=    70.00 Ry     beta= 0.70
     Davidson diagonalization with overlap
     ethr =  5.18E-04,  avg # of iterations =  3.8

     total cpu time spent up to now is       60.0 secs

     total energy              =   -1485.55054809 Ry
     estimated scf accuracy    <       0.05037083 Ry

     iteration #  5     ecut=    70.00 Ry     beta= 0.70
     Davidson diagonalization with overlap
     ethr =  1.14E-04,  avg # of iterations =  5.2

     total cpu time spent up to now is       71.4 secs

     total energy              =   -1485.54163811 Ry
     estimated scf accuracy    <       0.02803885 Ry

     iteration #  6     ecut=    70.00 Ry     beta= 0.70
     Davidson diagonalization with overlap
     c_bands:  1 eigenvalues not converged
     ethr =  6.37E-05,  avg # of iterations =  7.3

     total cpu time spent up to now is       84.9 secs

     total energy              =   -1485.54802127 Ry
     estimated scf accuracy    <       0.00124323 Ry

     iteration #  7     ecut=    70.00 Ry     beta= 0.70
     Davidson diagonalization with overlap
     c_bands:  1 eigenvalues not converged
     c_bands:  2 eigenvalues not converged
     c_bands:  1 eigenvalues not converged
     c_bands:  1 eigenvalues not converged
     c_bands:  2 eigenvalues not converged
     c_bands:  1 eigenvalues not converged
     ethr =  2.83E-06,  avg # of iterations = 12.8

     total cpu time spent up to now is      102.3 secs

     total energy              =   -1485.54853332 Ry
     estimated scf accuracy    <       0.00060163 Ry

     iteration #  8     ecut=    70.00 Ry     beta= 0.70
     Davidson diagonalization with overlap
     c_bands:  1 eigenvalues not converged
     c_bands:  1 eigenvalues not converged
     ethr =  1.37E-06,  avg # of iterations =  7.9

     total cpu time spent up to now is      114.6 secs

     total energy              =   -1485.54863549 Ry
     estimated scf accuracy    <       0.00002570 Ry

     iteration #  9     ecut=    70.00 Ry     beta= 0.70
     Davidson diagonalization with overlap
     ethr =  5.84E-08,  avg # of iterations =  5.8

     total cpu time spent up to now is      128.7 secs

     total energy              =   -1485.54866490 Ry
     estimated scf accuracy    <       0.00001805 Ry

     iteration # 10     ecut=    70.00 Ry     beta= 0.70
     Davidson diagonalization with overlap
     ethr =  4.10E-08,  avg # of iterations =  1.8

     total cpu time spent up to now is      139.7 secs

     total energy              =   -1485.54866334 Ry
     estimated scf accuracy    <       0.00000801 Ry

     iteration # 11     ecut=    70.00 Ry     beta= 0.70
     Davidson diagonalization with overlap
     ethr =  1.82E-08,  avg # of iterations =  3.9

     total cpu time spent up to now is      152.0 secs

     total energy              =   -1485.54866498 Ry
     estimated scf accuracy    <       0.00000026 Ry

     iteration # 12     ecut=    70.00 Ry     beta= 0.70
     Davidson diagonalization with overlap
     ethr =  5.90E-10,  avg # of iterations =  6.2

     total cpu time spent up to now is      166.9 secs

     total energy              =   -1485.54866544 Ry
     estimated scf accuracy    <       0.00000019 Ry

     iteration # 13     ecut=    70.00 Ry     beta= 0.70
     Davidson diagonalization with overlap
     ethr =  4.27E-10,  avg # of iterations =  1.8

     total cpu time spent up to now is      177.5 secs

     End of self-consistent calculation

          k = 0.0000 0.0000 0.0000 (  6451 PWs)   bands (ev):

   -19.3279 -16.0585 -13.6911 -13.6773 -13.6773 -13.4841 -13.3914  -8.3802
    -7.1719  -4.4516  -4.4516  -4.2651   1.1158   1.1517   2.7071   2.7071
     4.4257   4.4257   6.5891   6.9896   7.2541   7.2541  11.1134  11.1622
    12.0173  12.9400

          k = 0.0000 0.0000 0.2000 (  6523 PWs)   bands (ev):

   -19.3226 -16.0619 -13.6791 -13.6774 -13.6664 -13.4859 -13.3782  -8.3125
    -7.3396  -4.4433  -4.4363  -4.2510   0.3678   1.1522   2.6517   2.8311
     4.4832   5.4502   6.5610   6.9111   7.1803   7.2224  11.3353  11.7069
    12.4793  12.9834

          k = 0.0000 0.0000 0.4000 (  6507 PWs)   bands (ev):

   -19.3139 -16.0676 -13.6818 -13.6773 -13.6312 -13.4886 -13.3501  -8.0924
    -7.7230  -4.4337  -4.4114  -4.2279  -0.3386   1.1522   2.5622   2.7945
     4.5844   6.2654   6.4569   6.8635   7.0564   8.2229  11.4599  12.5989
    13.0396  13.1927

          k = 0.0000 0.2000 0.2000 (  6504 PWs)   bands (ev):

   -19.3189 -15.9497 -13.6810 -13.6794 -13.6671 -13.5225 -13.4858  -8.3824
    -7.3331  -4.4555  -4.4254  -4.2337  -0.4983   2.4751   2.7613   2.9004
     4.3392   5.3657   6.4102   6.7725   7.0781   7.2451  11.6426  11.9880
    12.8510  13.0260

          k = 0.0000 0.2000 0.4000 (  6486 PWs)   bands (ev):

   -19.3106 -15.9554 -13.6835 -13.6793 -13.6383 -13.4902 -13.4884  -8.1263
    -7.7251  -4.4740  -4.4031  -4.2407  -1.0382   2.3521   2.6788   2.8087
     4.4611   6.2646   6.5515   6.7500   6.9290   8.2977  11.7776  12.6814
    13.0330  13.0542

          k = 0.0000 0.4000 0.4000 (  6474 PWs)   bands (ev):

   -19.3053 -15.7387 -13.7912 -13.6863 -13.6825 -13.6120 -13.4882  -8.1795
    -7.7280  -4.5348  -4.3896  -4.2646  -1.5890   2.8280   2.9134   3.8965
     4.2144   6.2409   6.5921   6.6371   6.7387   8.5120  11.5980  12.4735
    12.9505  13.0865

          k = 0.2000 0.2000 0.2000 (  6499 PWs)   bands (ev):

   -19.3144 -15.9515 -13.6811 -13.6809 -13.6382 -13.5138 -13.4874  -8.3139
    -7.4616  -4.4613  -4.4441  -4.2327  -0.9633   2.2820   2.8403   2.9273
     4.9930   5.7015   6.5006   6.7405   7.0660   7.3612  11.9449  12.0698
    12.7020  12.9256

          k = 0.2000 0.2000 0.4000 (  6503 PWs)   bands (ev):

   -19.3070 -15.9545 -13.6836 -13.6810 -13.6018 -13.4899 -13.4877  -8.1028
    -7.7750  -4.4868  -4.4468  -4.2428  -1.5342   2.2058   2.8393   2.9110
     5.3956   6.1134   6.5361   6.7091   7.3026   8.3852  11.9360  11.9553
    12.9764  13.1295

          k = 0.2000 0.4000 0.4000 (  6494 PWs)   bands (ev):

   -19.3019 -15.7376 -13.7766 -13.6867 -13.6843 -13.5901 -13.4900  -8.1337
    -7.7613  -4.5468  -4.4593  -4.2953  -2.0606   2.8801   2.9899   3.6520
     5.3264   6.2902   6.4927   6.7145   7.2009   8.5957  10.8429  12.0961
    12.5983  13.0980

          k = 0.4000 0.4000 0.4000 (  6494 PWs)   bands (ev):

   -19.2963 -15.7358 -13.7591 -13.6873 -13.6871 -13.5469 -13.4928  -8.0115
    -7.8644  -4.5691  -4.5594  -4.3503  -2.6774   2.9931   3.0520   3.5914
     6.2577   6.6711   6.7415   6.8669   7.6883   9.2415  10.0397  11.2803
    11.5789  14.0157

          k = 0.0000 0.2000 0.0000 (  6523 PWs)   bands (ev):

   -19.3240 -15.9462 -13.6910 -13.6795 -13.6795 -13.5355 -13.4841  -8.4656
    -7.1686  -4.4391  -4.4391  -4.2356  -0.0547   2.8119   2.8119   2.8463
     4.2714   4.2714   6.2944   6.7842   7.1644   7.1644  11.3854  11.6044
    12.7264  13.0078

          k = 0.0000 0.4000 0.0000 (  6507 PWs)   bands (ev):

   -19.3177 -15.7289 -13.8054 -13.6907 -13.6828 -13.6828 -13.4840  -8.5957
    -7.1631  -4.4187  -4.4187  -4.1943  -0.6196   3.0422   3.0422   3.9627
     3.9627   4.5765   5.6954   6.5039   7.0355   7.0355  11.5434  12.3252
    13.1268  13.5174

          k = 0.2000 0.0000 0.2000 (  6504 PWs)   bands (ev):

   -19.3179 -16.0638 -13.6791 -13.6790 -13.6383 -13.4874 -13.3671  -8.2595
    -7.4732  -4.4523  -4.4267  -4.2387  -0.2776   1.1605   2.7703   2.8587
     5.1081   5.7588   6.5596   6.8052   7.0212   7.3970  11.8738  11.8770
    12.7704  12.9049

          k = 0.2000 0.4000 0.0000 (  6486 PWs)   bands (ev):

   -19.3130 -15.7326 -13.7981 -13.6841 -13.6827 -13.6629 -13.4856  -8.4898
    -7.3225  -4.4649  -4.4077  -4.2208  -1.0589   2.9654   2.9931   3.8984
     4.0517   5.4462   6.0059   6.5865   6.9293   7.2856  11.6410  12.5039
    13.1083  13.3003

          k = 0.4000 0.0000 0.2000 (  6486 PWs)   bands (ev):

   -19.3102 -16.0668 -13.6817 -13.6789 -13.5977 -13.4899 -13.3426  -8.0833
    -7.7832  -4.4503  -4.4294  -4.2187  -0.9589   1.1735   2.7789   2.8728
     5.4607   6.0283   6.4792   6.7315   7.3382   8.3247  11.9090  12.5715
    12.8943  13.1565

          k = 0.4000 0.0000 0.4000 (  6474 PWs)   bands (ev):

   -19.3042 -16.0654 -13.6815 -13.6815 -13.5470 -13.4920 -13.3253  -8.0344
    -7.9190  -4.4719  -4.4621  -4.2036  -1.6606   1.2081   2.9310   2.9802
     5.7424   6.5093   6.5415   6.7482   7.6845   9.0948  12.1867  12.3873
    12.8039  13.0776

          k = 0.2000 0.4000 0.2000 (  6503 PWs)   bands (ev):

   -19.3087 -15.7345 -13.7876 -13.6846 -13.6839 -13.6380 -13.4873  -8.3983
    -7.4425  -4.4763  -4.4497  -4.2485  -1.5043   2.8885   3.0503   3.6835
     4.8079   5.7705   6.2302   6.6598   7.1997   7.2585  11.3416  12.6416
    13.0738  13.2725

          k = 0.4000 0.2000 0.4000 (  6494 PWs)   bands (ev):

   -19.3012 -15.9530 -13.6837 -13.6836 -13.5470 -13.4923 -13.4774  -8.0257
    -7.8985  -4.5088  -4.5018  -4.2582  -2.1601   2.1632   2.9579   3.0074
     5.9296   6.5936   6.6148   6.7820   7.6939   9.1155  11.2850  11.8625
    12.1568  13.4822

     the Fermi energy is     9.6484 ev

!    total energy              =   -1485.54866543 Ry
     total all-electron energy =    -59834.206279 Ry
     estimated scf accuracy    <       0.00000004 Ry
     smearing contrib. (-TS)   =      -0.00018987 Ry
     internal energy E=F+TS    =   -1485.54847556 Ry

     The total energy is F=E-TS. E is the sum of the following terms:
     one-electron contribution =    -111.94545252 Ry
     hartree contribution      =      86.70837685 Ry
     xc contribution           =     -77.33083851 Ry
     ewald contribution        =    -221.08796443 Ry
     one-center paw contrib.   =   -1161.89259695 Ry

     convergence has been achieved in  13 iterations

     Forces acting on atoms (cartesian axes, Ry/au):

     atom    1 type  1   force =     0.00000000    0.00000000    0.00000000
     atom    2 type  2   force =     0.00000000    0.00000000    0.00000000
     atom    3 type  4   force =     0.00000000    0.00000000    0.00000000
     atom    4 type  4   force =     0.00000000    0.00000000    0.00000000
     atom    5 type  3   force =     0.00000000    0.00000000    0.00000000

     Total force =     0.000000     Total SCF correction =     0.000000


     Computing stress (Cartesian axis) and pressure

          total   stress  (Ry/bohr**3)                   (kbar)     P=        0.82
   0.00001489   0.00000000   0.00000000            2.19        0.00        0.00
   0.00000000  -0.00001307   0.00000000            0.00       -1.92        0.00
   0.00000000   0.00000000   0.00001489            0.00        0.00        2.19


     BFGS Geometry Optimization
     Energy error            =      0.0E+00 Ry
     Gradient error          =      0.0E+00 Ry/Bohr

     bfgs converged in   1 scf cycles and   0 bfgs steps
     (criteria: energy <  1.0E-04 Ry, force <  1.0E-03 Ry/Bohr)

     End of BFGS Geometry Optimization

     Final energy             =   -1485.5486654253 Ry
Begin final coordinates

ATOMIC_POSITIONS (angstrom)
Ba            2.3000000000        2.3000000000        2.3000000000
Bi            0.0000000000        0.0000000000        0.0000000000
O             0.0000000000        0.0000000000        2.3000000000
O             2.3000000000        0.0000000000        0.0000000000
F             0.0000000000        2.3000000000        0.0000000000
End final coordinates



     init_run     :      5.38s CPU      8.49s WALL (       1 calls)
     electrons    :    128.06s CPU    167.78s WALL (       1 calls)
     forces       :      1.54s CPU      2.77s WALL (       1 calls)
     stress       :      9.70s CPU     14.31s WALL (       1 calls)

     Called by init_run:
     wfcinit      :      1.84s CPU      2.54s WALL (       1 calls)
     potinit      :      1.09s CPU      1.68s WALL (       1 calls)
     hinit0       :      1.76s CPU      2.91s WALL (       1 calls)

     Called by electrons:
     c_bands      :     86.98s CPU    106.34s WALL (      13 calls)
     sum_band     :     21.89s CPU     32.98s WALL (      13 calls)
     v_of_rho     :      2.84s CPU      3.66s WALL (      14 calls)
     newd         :      9.27s CPU     16.07s WALL (      14 calls)
     PAW_pot      :      7.64s CPU     10.15s WALL (      14 calls)
     mix_rho      :      0.42s CPU      0.50s WALL (      13 calls)

     Called by c_bands:
     init_us_2    :      1.64s CPU      2.42s WALL (     522 calls)
     init_us_2:cp :      1.64s CPU      2.41s WALL (     522 calls)
     cegterg      :     83.04s CPU    101.38s WALL (     234 calls)

     Called by *egterg:
     cdiaghg      :      2.02s CPU      2.59s WALL (    1558 calls)
     h_psi        :     62.83s CPU     77.27s WALL (    1576 calls)
     s_psi        :      2.71s CPU      3.48s WALL (    1576 calls)
     g_psi        :      0.30s CPU      0.41s WALL (    1324 calls)

     Called by h_psi:
     h_psi:calbec :      4.13s CPU      4.94s WALL (    1576 calls)
     vloc_psi     :     55.40s CPU     68.08s WALL (    1576 calls)
     add_vuspsi   :      3.02s CPU      3.89s WALL (    1576 calls)

     General routines
     calbec       :      5.42s CPU      6.73s WALL (    1900 calls)
     fft          :      2.67s CPU      3.52s WALL (     205 calls)
     ffts         :      0.36s CPU      0.43s WALL (      27 calls)
     fftw         :     57.97s CPU     72.08s WALL (   41180 calls)
     interpolate  :      0.46s CPU      0.54s WALL (      14 calls)

     Parallel routines

     PWSCF        :   2m25.76s CPU   3m14.57s WALL


   This run was terminated on:  23: 0:13   6May2024            

=------------------------------------------------------------------------------=
   JOB DONE.
=------------------------------------------------------------------------------=
