
     Program PWSCF v.7.1 starts on  6May2024 at  2:34:48 

     This program is part of the open-source Quantum ESPRESSO suite
     for quantum simulation of materials; please cite
         "P. Giannozzi et al., J. Phys.:Condens. Matter 21 395502 (2009);
         "P. Giannozzi et al., J. Phys.:Condens. Matter 29 465901 (2017);
         "P. Giannozzi et al., J. Chem. Phys. 152 154105 (2020);
          URL http://www.quantum-espresso.org", 
     in publications or presentations arising from this work. More details at
     http://www.quantum-espresso.org/quote

     Parallel version (MPI), running on     2 processors

     MPI processes distributed on     1 nodes
     13799 MiB available memory on the printing compute node when the environment starts

     Waiting for input...
     Reading input from standard input
Warning: card &CELL ignored
Warning: card / ignored

     Current dimensions of program PWSCF are:
     Max number of different atomic species (ntypx) = 10
     Max number of k-points (npk) =  40000
     Max angular momentum in pseudopotentials (lmaxx) =  4
     file Ba.pbe-spn-kjpaw_psl.1.0.0.UPF: wavefunction(s)  5S 6S renormalized
     file Bi.pbe-dn-kjpaw_psl.1.0.0.UPF: wavefunction(s)  6P 5D renormalized
     file O.pbe-n-kjpaw_psl.1.0.0.UPF: wavefunction(s)  2S 2P renormalized
     Message from routine setup:
     using ibrav=0 with symmetry is DISCOURAGED, use correct ibrav instead

     R & G space division:  proc/nbgrp/npool/nimage =       2
     Subspace diagonalization in iterative solution of the eigenvalue problem:
     a serial algorithm will be used


     Parallelization info
     --------------------
     sticks:   dense  smooth     PW     G-vecs:    dense   smooth      PW
     Min        1498     742    210                61904    21861    3308
     Max        1499     747    211                61905    21862    3311
     Sum        2997    1489    421               123809    43723    6619

     Using Slab Decomposition



     bravais-lattice index     =            0
     lattice parameter (alat)  =       8.2014  a.u.
     unit-cell volume          =     551.6528 (a.u.)^3
     number of atoms/cell      =            5
     number of atomic types    =            3
     number of electrons       =        43.00
     number of Kohn-Sham states=           26
     kinetic-energy cutoff     =      70.0000  Ry
     charge density cutoff     =     560.0000  Ry
     scf convergence threshold =      1.0E-07
     mixing beta               =       0.7000
     number of iterations used =            8  plain     mixing
     Exchange-correlation= SLA  PW   PBX  PBC
                           (   1   4   3   4   0   0   0)

     celldm(1)=   8.201411  celldm(2)=   0.000000  celldm(3)=   0.000000
     celldm(4)=   0.000000  celldm(5)=   0.000000  celldm(6)=   0.000000

     crystal axes: (cart. coord. in units of alat)
               a(1) = (   1.000000   0.000000   0.000000 )  
               a(2) = (   0.000000   1.000000   0.000000 )  
               a(3) = (   0.000000   0.000000   1.000000 )  

     reciprocal axes: (cart. coord. in units 2 pi/alat)
               b(1) = (  1.000000  0.000000  0.000000 )  
               b(2) = (  0.000000  1.000000  0.000000 )  
               b(3) = (  0.000000  0.000000  1.000000 )  


     PseudoPot. # 1 for Ba read from file:
     /home/bond/Software/qe-7.1/pseudo/Ba.pbe-spn-kjpaw_psl.1.0.0.UPF
     MD5 check sum: 7cfe25f1fe7574a4710541d5a11d6531
     Pseudo is Projector augmented-wave + core cor, Zval = 10.0
     Generated using &quot;atomic&quot; code by A. Dal Corso  v.6.2.2
     Shape of augmentation charge: PSQ
     Using radial grid of 1251 points,  7 beta functions with: 
                l(1) =   0
                l(2) =   0
                l(3) =   0
                l(4) =   1
                l(5) =   1
                l(6) =   2
                l(7) =   2
     Q(r) pseudized with 0 coefficients 


     PseudoPot. # 2 for Bi read from file:
     /home/bond/Software/qe-7.1/pseudo/Bi.pbe-dn-kjpaw_psl.1.0.0.UPF
     MD5 check sum: 266ded784ae3bc462508ed03f0f37963
     Pseudo is Projector augmented-wave + core cor, Zval = 15.0
     Generated using &quot;atomic&quot; code by A. Dal Corso  v.6.2.2
     Shape of augmentation charge: PSQ
     Using radial grid of 1283 points,  6 beta functions with: 
                l(1) =   0
                l(2) =   0
                l(3) =   1
                l(4) =   1
                l(5) =   2
                l(6) =   2
     Q(r) pseudized with 0 coefficients 


     PseudoPot. # 3 for O  read from file:
     /home/bond/Software/qe-7.1/pseudo/O.pbe-n-kjpaw_psl.1.0.0.UPF
     MD5 check sum: e99d9cef9b487d1ca56f5b95ecd0fd7a
     Pseudo is Projector augmented-wave + core cor, Zval =  6.0
     Generated using &quot;atomic&quot; code by A. Dal Corso  v.6.3
     Shape of augmentation charge: PSQ
     Using radial grid of 1095 points,  4 beta functions with: 
                l(1) =   0
                l(2) =   0
                l(3) =   1
                l(4) =   1
     Q(r) pseudized with 0 coefficients 


     atomic species   valence    mass     pseudopotential
        Ba            10.00   137.32700     Ba( 1.00)
        Bi            15.00   208.98040     Bi( 1.00)
        O              6.00    15.99900     O ( 1.00)

     48 Sym. Ops., with inversion, found



   Cartesian axes

     site n.     atom                  positions (alat units)
         1           Ba  tau(   1) = (   0.5000000   0.5000000   0.5000000  )
         2           Bi  tau(   2) = (   0.0000000   0.0000000   0.0000000  )
         3           O   tau(   3) = (   0.0000000   0.0000000   0.5000000  )
         4           O   tau(   4) = (   0.5000000   0.0000000   0.0000000  )
         5           O   tau(   5) = (   0.0000000   0.5000000   0.0000000  )

     number of k points=    10  Methfessel-Paxton smearing, width (Ry)=  0.0200
                       cart. coord. in units 2pi/alat
        k(    1) = (   0.0000000   0.0000000   0.0000000), wk =   0.0160000
        k(    2) = (   0.0000000   0.0000000   0.2000000), wk =   0.0960000
        k(    3) = (   0.0000000   0.0000000   0.4000000), wk =   0.0960000
        k(    4) = (   0.0000000   0.2000000   0.2000000), wk =   0.1920000
        k(    5) = (   0.0000000   0.2000000   0.4000000), wk =   0.3840000
        k(    6) = (   0.0000000   0.4000000   0.4000000), wk =   0.1920000
        k(    7) = (   0.2000000   0.2000000   0.2000000), wk =   0.1280000
        k(    8) = (   0.2000000   0.2000000   0.4000000), wk =   0.3840000
        k(    9) = (   0.2000000   0.4000000   0.4000000), wk =   0.3840000
        k(   10) = (   0.4000000   0.4000000   0.4000000), wk =   0.1280000

     Dense  grid:   123809 G-vectors     FFT dimensions: (  64,  64,  64)

     Smooth grid:    43723 G-vectors     FFT dimensions: (  45,  45,  45)

     Estimated max dynamical RAM per process >     268.06 MB

     Estimated total dynamical RAM >     536.13 MB

     Initial potential from superposition of free atoms

     starting charge      42.9822, renormalised to      43.0000
     Starting wfcs are   26 randomized atomic wfcs
     Checking if some PAW data can be deallocated... 

     total cpu time spent up to now is        6.6 secs

     Self-consistent Calculation

     iteration #  1     ecut=    70.00 Ry     beta= 0.70
     Davidson diagonalization with overlap
     ethr =  1.00E-02,  avg # of iterations =  6.3

     total cpu time spent up to now is       13.4 secs

     total energy              =   -1466.69099723 Ry
     estimated scf accuracy    <       1.69583668 Ry

     iteration #  2     ecut=    70.00 Ry     beta= 0.70
     Davidson diagonalization with overlap
     ethr =  3.94E-03,  avg # of iterations =  5.9

     total cpu time spent up to now is       21.6 secs

     total energy              =   -1467.14879999 Ry
     estimated scf accuracy    <       3.61173518 Ry

     iteration #  3     ecut=    70.00 Ry     beta= 0.70
     Davidson diagonalization with overlap
     ethr =  3.94E-03,  avg # of iterations =  2.8

     total cpu time spent up to now is       29.0 secs

     total energy              =   -1467.41211249 Ry
     estimated scf accuracy    <       0.37949808 Ry

     iteration #  4     ecut=    70.00 Ry     beta= 0.70
     Davidson diagonalization with overlap
     ethr =  8.83E-04,  avg # of iterations =  6.5

     total cpu time spent up to now is       37.7 secs

     total energy              =   -1467.75557716 Ry
     estimated scf accuracy    <       0.20285394 Ry

     iteration #  5     ecut=    70.00 Ry     beta= 0.70
     Davidson diagonalization with overlap
     ethr =  4.72E-04,  avg # of iterations =  1.9

     total cpu time spent up to now is       43.9 secs

     total energy              =   -1467.72874336 Ry
     estimated scf accuracy    <       0.07120830 Ry

     iteration #  6     ecut=    70.00 Ry     beta= 0.70
     Davidson diagonalization with overlap
     ethr =  1.66E-04,  avg # of iterations =  8.9

     total cpu time spent up to now is       53.2 secs

     total energy              =   -1467.76108445 Ry
     estimated scf accuracy    <       0.00915197 Ry

     iteration #  7     ecut=    70.00 Ry     beta= 0.70
     Davidson diagonalization with overlap
     c_bands:  1 eigenvalues not converged
     c_bands:  1 eigenvalues not converged
     ethr =  2.13E-05,  avg # of iterations = 10.7

     total cpu time spent up to now is       61.9 secs

     total energy              =   -1467.75827432 Ry
     estimated scf accuracy    <       0.01261920 Ry

     iteration #  8     ecut=    70.00 Ry     beta= 0.70
     Davidson diagonalization with overlap
     ethr =  2.13E-05,  avg # of iterations =  2.1

     total cpu time spent up to now is       68.4 secs

     total energy              =   -1467.75675356 Ry
     estimated scf accuracy    <       0.00406625 Ry

     iteration #  9     ecut=    70.00 Ry     beta= 0.70
     Davidson diagonalization with overlap
     ethr =  9.46E-06,  avg # of iterations =  5.0

     total cpu time spent up to now is       77.0 secs

     total energy              =   -1467.75880346 Ry
     estimated scf accuracy    <       0.00102694 Ry

     iteration # 10     ecut=    70.00 Ry     beta= 0.70
     Davidson diagonalization with overlap
     ethr =  2.39E-06,  avg # of iterations =  2.9

     total cpu time spent up to now is       84.1 secs

     total energy              =   -1467.75876501 Ry
     estimated scf accuracy    <       0.00038260 Ry

     iteration # 11     ecut=    70.00 Ry     beta= 0.70
     Davidson diagonalization with overlap
     ethr =  8.90E-07,  avg # of iterations =  2.3

     total cpu time spent up to now is       91.0 secs

     total energy              =   -1467.75880117 Ry
     estimated scf accuracy    <       0.00008641 Ry

     iteration # 12     ecut=    70.00 Ry     beta= 0.70
     Davidson diagonalization with overlap
     ethr =  2.01E-07,  avg # of iterations =  4.6

     total cpu time spent up to now is       98.2 secs

     total energy              =   -1467.75879795 Ry
     estimated scf accuracy    <       0.00004917 Ry

     iteration # 13     ecut=    70.00 Ry     beta= 0.70
     Davidson diagonalization with overlap
     ethr =  1.14E-07,  avg # of iterations =  3.9

     total cpu time spent up to now is      105.2 secs

     total energy              =   -1467.75880362 Ry
     estimated scf accuracy    <       0.00001043 Ry

     iteration # 14     ecut=    70.00 Ry     beta= 0.70
     Davidson diagonalization with overlap
     ethr =  2.43E-08,  avg # of iterations =  4.7

     total cpu time spent up to now is      112.9 secs

     total energy              =   -1467.75880845 Ry
     estimated scf accuracy    <       0.00000075 Ry

     iteration # 15     ecut=    70.00 Ry     beta= 0.70
     Davidson diagonalization with overlap
     ethr =  1.74E-09,  avg # of iterations =  3.4

     total cpu time spent up to now is      119.9 secs

     total energy              =   -1467.75880853 Ry
     estimated scf accuracy    <       0.00000056 Ry

     iteration # 16     ecut=    70.00 Ry     beta= 0.70
     Davidson diagonalization with overlap
     ethr =  1.30E-09,  avg # of iterations =  5.0

     total cpu time spent up to now is      128.2 secs

     total energy              =   -1467.75881209 Ry
     estimated scf accuracy    <       0.00000182 Ry

     iteration # 17     ecut=    70.00 Ry     beta= 0.70
     Davidson diagonalization with overlap
     ethr =  1.30E-09,  avg # of iterations =  6.5

     total cpu time spent up to now is      137.6 secs

     total energy              =   -1467.75880674 Ry
     estimated scf accuracy    <       0.00002212 Ry

     iteration # 18     ecut=    70.00 Ry     beta= 0.70
     Davidson diagonalization with overlap
     ethr =  1.30E-09,  avg # of iterations =  5.5

     total cpu time spent up to now is      146.7 secs

     total energy              =   -1467.75880955 Ry
     estimated scf accuracy    <       0.00000176 Ry

     iteration # 19     ecut=    70.00 Ry     beta= 0.70
     Davidson diagonalization with overlap
     ethr =  1.30E-09,  avg # of iterations =  1.8

     total cpu time spent up to now is      153.5 secs

     total energy              =   -1467.75881297 Ry
     estimated scf accuracy    <       0.00000350 Ry

     iteration # 20     ecut=    70.00 Ry     beta= 0.70
     Davidson diagonalization with overlap
     ethr =  1.30E-09,  avg # of iterations =  5.4

     total cpu time spent up to now is      162.6 secs

     total energy              =   -1467.75881123 Ry
     estimated scf accuracy    <       0.00002416 Ry

     iteration # 21     ecut=    70.00 Ry     beta= 0.70
     Davidson diagonalization with overlap
     ethr =  1.30E-09,  avg # of iterations =  4.7

     total cpu time spent up to now is      170.9 secs

     total energy              =   -1467.75881120 Ry
     estimated scf accuracy    <       0.00001267 Ry

     iteration # 22     ecut=    70.00 Ry     beta= 0.70
     Davidson diagonalization with overlap
     ethr =  1.30E-09,  avg # of iterations =  1.2

     total cpu time spent up to now is      176.9 secs

     total energy              =   -1467.75880911 Ry
     estimated scf accuracy    <       0.00001155 Ry

     iteration # 23     ecut=    70.00 Ry     beta= 0.70
     Davidson diagonalization with overlap
     ethr =  1.30E-09,  avg # of iterations =  5.1

     total cpu time spent up to now is      184.9 secs

     total energy              =   -1467.75880840 Ry
     estimated scf accuracy    <       0.00000413 Ry

     iteration # 24     ecut=    70.00 Ry     beta= 0.70
     Davidson diagonalization with overlap
     ethr =  1.30E-09,  avg # of iterations =  5.1

     total cpu time spent up to now is      192.6 secs

     total energy              =   -1467.75880832 Ry
     estimated scf accuracy    <       0.00000075 Ry

     iteration # 25     ecut=    70.00 Ry     beta= 0.70
     Davidson diagonalization with overlap
     ethr =  1.30E-09,  avg # of iterations =  5.0

     total cpu time spent up to now is      200.7 secs

     End of self-consistent calculation

          k = 0.0000 0.0000 0.0000 (  5449 PWs)   bands (ev):

   -16.3287 -12.3213 -12.3213 -11.8133 -11.8133 -11.8133  -8.3725  -5.6720
    -5.6720  -1.4675  -1.4675  -1.4675   4.5978   4.6504   4.6504   4.6504
     8.3510   8.3510   8.3510   8.6417   8.6417   8.6417  13.8508  13.8508
    15.2211  15.9100

          k = 0.0000 0.0000 0.2000 (  5478 PWs)   bands (ev):

   -16.3169 -12.3208 -12.2519 -11.8174 -11.8174 -11.8132  -8.2708  -6.0567
    -5.6670  -1.4315  -1.4315  -1.4038   2.9677   4.6472   4.6472   6.5933
     8.1403   8.2626   8.2626   8.5537   8.5537   8.8848  14.3525  14.3763
    15.9232  16.2782

          k = 0.0000 0.0000 0.4000 (  5458 PWs)   bands (ev):

   -16.2976 -12.3199 -12.1361 -11.8238 -11.8238 -11.8130  -7.9539  -6.8140
    -5.6588  -1.3717  -1.3717  -1.3310   2.1893   4.6310   4.6310   7.0944
     7.8443   8.1888   8.1888   8.3758   8.3758  10.5468  15.1980  15.2137
    16.1896  16.8185

          k = 0.0000 0.2000 0.2000 (  5429 PWs)   bands (ev):

   -16.3061 -12.2869 -12.2133 -11.8208 -11.8172 -11.8169  -8.1659  -6.1966
    -5.8719  -1.4594  -1.4009  -1.3535   1.9906   4.6811   5.6819   6.7687
     7.8460   8.1626   8.3767   8.4428   8.7514   9.1783  14.6711  14.9207
    16.0626  16.3680

          k = 0.0000 0.2000 0.4000 (  5440 PWs)   bands (ev):

   -16.2886 -12.2751 -12.1037 -11.8265 -11.8235 -11.8168  -7.8380  -6.8416
    -5.9383  -1.4346  -1.3674  -1.3504   1.2563   4.7299   6.0802   7.0044
     7.7511   8.0702   8.2210   8.3314   8.6969  10.8241  15.3752  15.7264
    16.4003  16.5200

          k = 0.0000 0.4000 0.4000 (  5456 PWs)   bands (ev):

   -16.2739 -12.2339 -12.0141 -11.8308 -11.8230 -11.8229  -7.4813  -6.9585
    -6.5054  -1.4941  -1.4603  -1.3153   0.4790   4.9036   6.8041   7.6421
     7.8585   7.8917   7.9612   8.4853   9.0464  11.9135  15.6000  15.9948
    16.0903  16.4424

          k = 0.2000 0.2000 0.2000 (  5467 PWs)   bands (ev):

   -16.2961 -12.2129 -12.2129 -11.8212 -11.8212 -11.8202  -8.0621  -6.1814
    -6.1814  -1.4691  -1.4691  -1.3003   1.1711   5.7100   5.7100   6.8126
     7.8545   7.8545   8.6273   8.6767   8.6767   9.4527  15.0505  15.0505
    15.9976  16.4321

          k = 0.2000 0.2000 0.4000 (  5476 PWs)   bands (ev):

   -16.2799 -12.2121 -12.0881 -11.8279 -11.8257 -11.8208  -7.7354  -6.8482
    -6.1566  -1.4856  -1.4723  -1.3427   0.4435   5.7493   6.4430   7.0417
     7.6721   7.9137   8.5091   8.5230   8.7520  11.0267  15.3213  15.5891
    16.1969  16.3313

          k = 0.2000 0.4000 0.4000 (  5470 PWs)   bands (ev):

   -16.2658 -12.1526 -12.0138 -11.8322 -11.8274 -11.8269  -7.4173  -6.9336
    -6.6111  -1.5596  -1.5508  -1.4199  -0.3526   6.1945   7.0578   7.6274
     7.6785   7.9644   8.4833   8.6773   9.0610  12.0156  14.9484  14.9956
    15.5339  16.4466

          k = 0.4000 0.4000 0.4000 (  5457 PWs)   bands (ev):

   -16.2526 -12.0135 -12.0135 -11.8345 -11.8345 -11.8332  -7.2207  -6.8924
    -6.8924  -1.6652  -1.6652  -1.6046  -1.2592   7.4543   7.6590   7.6590
     8.0203   8.0203   9.0038   9.0038   9.1168  12.5460  13.9456  13.9456
    14.6810  17.4371

     the Fermi energy is    10.9712 ev

!    total energy              =   -1467.75880856 Ry
     total all-electron energy =    -59784.850591 Ry
     estimated scf accuracy    <       0.00000004 Ry
     smearing contrib. (-TS)   =      -0.00119700 Ry
     internal energy E=F+TS    =   -1467.75761156 Ry

     The total energy is F=E-TS. E is the sum of the following terms:
     one-electron contribution =     -77.40400592 Ry
     hartree contribution      =      71.80043210 Ry
     xc contribution           =     -75.46837348 Ry
     ewald contribution        =    -226.35938624 Ry
     one-center paw contrib.   =   -1160.32627802 Ry

     convergence has been achieved in  25 iterations

     Forces acting on atoms (cartesian axes, Ry/au):

     atom    1 type  1   force =     0.00000000    0.00000000    0.00000000
     atom    2 type  2   force =     0.00000000    0.00000000    0.00000000
     atom    3 type  3   force =     0.00000000    0.00000000    0.00000000
     atom    4 type  3   force =     0.00000000    0.00000000    0.00000000
     atom    5 type  3   force =     0.00000000    0.00000000    0.00000000

     Total force =     0.000000     Total SCF correction =     0.000000


     Computing stress (Cartesian axis) and pressure

          total   stress  (Ry/bohr**3)                   (kbar)     P=       69.58
   0.00047302   0.00000000   0.00000000           69.58        0.00        0.00
   0.00000000   0.00047302   0.00000000            0.00       69.58        0.00
   0.00000000   0.00000000   0.00047302            0.00        0.00       69.58


     init_run     :      4.88s CPU      5.24s WALL (       1 calls)
     electrons    :    145.03s CPU    194.08s WALL (       1 calls)
     forces       :      1.37s CPU      1.72s WALL (       1 calls)
     stress       :      9.74s CPU     10.62s WALL (       1 calls)

     Called by init_run:
     wfcinit      :      1.27s CPU      1.32s WALL (       1 calls)
     potinit      :      0.94s CPU      0.98s WALL (       1 calls)
     hinit0       :      1.92s CPU      2.01s WALL (       1 calls)

     Called by electrons:
     c_bands      :     85.08s CPU    108.96s WALL (      25 calls)
     sum_band     :     29.26s CPU     41.52s WALL (      25 calls)
     v_of_rho     :      3.48s CPU      4.43s WALL (      26 calls)
     newd         :     13.44s CPU     21.09s WALL (      26 calls)
     PAW_pot      :     14.16s CPU     18.34s WALL (      26 calls)
     mix_rho      :      0.62s CPU      0.78s WALL (      25 calls)

     Called by c_bands:
     init_us_2    :      1.30s CPU      1.62s WALL (     530 calls)
     init_us_2:cp :      1.29s CPU      1.62s WALL (     530 calls)
     cegterg      :     81.70s CPU    104.65s WALL (     250 calls)

     Called by *egterg:
     cdiaghg      :      1.77s CPU      2.40s WALL (    1422 calls)
     h_psi        :     65.61s CPU     83.70s WALL (    1432 calls)
     s_psi        :      2.29s CPU      3.11s WALL (    1432 calls)
     g_psi        :      0.28s CPU      0.37s WALL (    1172 calls)

     Called by h_psi:
     h_psi:calbec :      3.29s CPU      4.13s WALL (    1432 calls)
     vloc_psi     :     59.54s CPU     75.81s WALL (    1432 calls)
     add_vuspsi   :      2.53s CPU      3.43s WALL (    1432 calls)

     General routines
     calbec       :      4.87s CPU      6.03s WALL (    1732 calls)
     fft          :      2.95s CPU      3.46s WALL (     361 calls)
     ffts         :      0.23s CPU      0.25s WALL (      51 calls)
     fftw         :     64.46s CPU     81.86s WALL (   43948 calls)
     interpolate  :      0.30s CPU      0.37s WALL (      26 calls)

     Parallel routines

     PWSCF        :   2m41.95s CPU   3m33.01s WALL


   This run was terminated on:   2:38:21   6May2024            

=------------------------------------------------------------------------------=
   JOB DONE.
=------------------------------------------------------------------------------=
