
     Program PWSCF v.7.1 starts on  6May2024 at  1:21: 7 

     This program is part of the open-source Quantum ESPRESSO suite
     for quantum simulation of materials; please cite
         "P. Giannozzi et al., J. Phys.:Condens. Matter 21 395502 (2009);
         "P. Giannozzi et al., J. Phys.:Condens. Matter 29 465901 (2017);
         "P. Giannozzi et al., J. Chem. Phys. 152 154105 (2020);
          URL http://www.quantum-espresso.org", 
     in publications or presentations arising from this work. More details at
     http://www.quantum-espresso.org/quote

     Parallel version (MPI), running on     2 processors

     MPI processes distributed on     1 nodes
     13556 MiB available memory on the printing compute node when the environment starts

     Waiting for input...
     Reading input from standard input
Warning: card &CELL ignored
Warning: card / ignored

     Current dimensions of program PWSCF are:
     Max number of different atomic species (ntypx) = 10
     Max number of k-points (npk) =  40000
     Max angular momentum in pseudopotentials (lmaxx) =  4
     file Ba.pbe-spn-kjpaw_psl.1.0.0.UPF: wavefunction(s)  5S 6S renormalized
     file Bi.pbe-dn-kjpaw_psl.1.0.0.UPF: wavefunction(s)  6P 5D renormalized
     file O.pbe-n-kjpaw_psl.1.0.0.UPF: wavefunction(s)  2S 2P renormalized
     Message from routine setup:
     using ibrav=0 with symmetry is DISCOURAGED, use correct ibrav instead

     R & G space division:  proc/nbgrp/npool/nimage =       2
     Subspace diagonalization in iterative solution of the eigenvalue problem:
     a serial algorithm will be used


     Parallelization info
     --------------------
     sticks:   dense  smooth     PW     G-vecs:    dense   smooth      PW
     Min        1446     728    210                58808    20877    3308
     Max        1447     729    211                58809    20878    3311
     Sum        2893    1457    421               117617    41755    6619

     Using Slab Decomposition



     bravais-lattice index     =            0
     lattice parameter (alat)  =       8.3715  a.u.
     unit-cell volume          =     586.6888 (a.u.)^3
     number of atoms/cell      =            5
     number of atomic types    =            3
     number of electrons       =        43.00
     number of Kohn-Sham states=           26
     kinetic-energy cutoff     =      65.0000  Ry
     charge density cutoff     =     520.0000  Ry
     scf convergence threshold =      1.0E-07
     mixing beta               =       0.7000
     number of iterations used =            8  plain     mixing
     Exchange-correlation= SLA  PW   PBX  PBC
                           (   1   4   3   4   0   0   0)

     celldm(1)=   8.371487  celldm(2)=   0.000000  celldm(3)=   0.000000
     celldm(4)=   0.000000  celldm(5)=   0.000000  celldm(6)=   0.000000

     crystal axes: (cart. coord. in units of alat)
               a(1) = (   1.000000   0.000000   0.000000 )  
               a(2) = (   0.000000   1.000000   0.000000 )  
               a(3) = (   0.000000   0.000000   1.000000 )  

     reciprocal axes: (cart. coord. in units 2 pi/alat)
               b(1) = (  1.000000  0.000000  0.000000 )  
               b(2) = (  0.000000  1.000000  0.000000 )  
               b(3) = (  0.000000  0.000000  1.000000 )  


     PseudoPot. # 1 for Ba read from file:
     /home/bond/Software/qe-7.1/pseudo/Ba.pbe-spn-kjpaw_psl.1.0.0.UPF
     MD5 check sum: 7cfe25f1fe7574a4710541d5a11d6531
     Pseudo is Projector augmented-wave + core cor, Zval = 10.0
     Generated using &quot;atomic&quot; code by A. Dal Corso  v.6.2.2
     Shape of augmentation charge: PSQ
     Using radial grid of 1251 points,  7 beta functions with: 
                l(1) =   0
                l(2) =   0
                l(3) =   0
                l(4) =   1
                l(5) =   1
                l(6) =   2
                l(7) =   2
     Q(r) pseudized with 0 coefficients 


     PseudoPot. # 2 for Bi read from file:
     /home/bond/Software/qe-7.1/pseudo/Bi.pbe-dn-kjpaw_psl.1.0.0.UPF
     MD5 check sum: 266ded784ae3bc462508ed03f0f37963
     Pseudo is Projector augmented-wave + core cor, Zval = 15.0
     Generated using &quot;atomic&quot; code by A. Dal Corso  v.6.2.2
     Shape of augmentation charge: PSQ
     Using radial grid of 1283 points,  6 beta functions with: 
                l(1) =   0
                l(2) =   0
                l(3) =   1
                l(4) =   1
                l(5) =   2
                l(6) =   2
     Q(r) pseudized with 0 coefficients 


     PseudoPot. # 3 for O  read from file:
     /home/bond/Software/qe-7.1/pseudo/O.pbe-n-kjpaw_psl.1.0.0.UPF
     MD5 check sum: e99d9cef9b487d1ca56f5b95ecd0fd7a
     Pseudo is Projector augmented-wave + core cor, Zval =  6.0
     Generated using &quot;atomic&quot; code by A. Dal Corso  v.6.3
     Shape of augmentation charge: PSQ
     Using radial grid of 1095 points,  4 beta functions with: 
                l(1) =   0
                l(2) =   0
                l(3) =   1
                l(4) =   1
     Q(r) pseudized with 0 coefficients 


     atomic species   valence    mass     pseudopotential
        Ba            10.00   137.32700     Ba( 1.00)
        Bi            15.00   208.98040     Bi( 1.00)
        O              6.00    15.99900     O ( 1.00)

     48 Sym. Ops., with inversion, found



   Cartesian axes

     site n.     atom                  positions (alat units)
         1           Ba  tau(   1) = (   0.5000000   0.5000000   0.5000000  )
         2           Bi  tau(   2) = (   0.0000000   0.0000000   0.0000000  )
         3           O   tau(   3) = (   0.0000000   0.0000000   0.5000000  )
         4           O   tau(   4) = (   0.5000000   0.0000000   0.0000000  )
         5           O   tau(   5) = (   0.0000000   0.5000000   0.0000000  )

     number of k points=    10  Methfessel-Paxton smearing, width (Ry)=  0.0200
                       cart. coord. in units 2pi/alat
        k(    1) = (   0.0000000   0.0000000   0.0000000), wk =   0.0312500
        k(    2) = (   0.0000000   0.0000000   0.2500000), wk =   0.1875000
        k(    3) = (   0.0000000   0.0000000  -0.5000000), wk =   0.0937500
        k(    4) = (   0.0000000   0.2500000   0.2500000), wk =   0.3750000
        k(    5) = (   0.0000000   0.2500000  -0.5000000), wk =   0.3750000
        k(    6) = (   0.0000000  -0.5000000  -0.5000000), wk =   0.0937500
        k(    7) = (   0.2500000   0.2500000   0.2500000), wk =   0.2500000
        k(    8) = (   0.2500000   0.2500000  -0.5000000), wk =   0.3750000
        k(    9) = (   0.2500000  -0.5000000  -0.5000000), wk =   0.1875000
        k(   10) = (  -0.5000000  -0.5000000  -0.5000000), wk =   0.0312500

     Dense  grid:   117617 G-vectors     FFT dimensions: (  64,  64,  64)

     Smooth grid:    41755 G-vectors     FFT dimensions: (  45,  45,  45)

     Estimated max dynamical RAM per process >     255.23 MB

     Estimated total dynamical RAM >     510.46 MB

     Initial potential from superposition of free atoms

     starting charge      42.9822, renormalised to      43.0000
     Starting wfcs are   26 randomized atomic wfcs
     Checking if some PAW data can be deallocated... 

     total cpu time spent up to now is        5.1 secs

     Self-consistent Calculation

     iteration #  1     ecut=    65.00 Ry     beta= 0.70
     Davidson diagonalization with overlap
     ethr =  1.00E-02,  avg # of iterations =  2.2
     Minimization algorithm failed to find Fermi energy: reverting to bisection
     Possible cause: smearing is larger than the electronic band-gap.

     total cpu time spent up to now is        9.7 secs

     total energy              =   -1466.60726469 Ry
     estimated scf accuracy    <       1.79567193 Ry

     iteration #  2     ecut=    65.00 Ry     beta= 0.70
     Davidson diagonalization with overlap
     ethr =  4.18E-03,  avg # of iterations =  6.8

     total cpu time spent up to now is       16.0 secs

     total energy              =   -1467.06484561 Ry
     estimated scf accuracy    <       4.32387637 Ry

     iteration #  3     ecut=    65.00 Ry     beta= 0.70
     Davidson diagonalization with overlap
     ethr =  4.18E-03,  avg # of iterations =  3.3

     total cpu time spent up to now is       20.8 secs

     total energy              =   -1467.36230676 Ry
     estimated scf accuracy    <       0.42639431 Ry

     iteration #  4     ecut=    65.00 Ry     beta= 0.70
     Davidson diagonalization with overlap
     ethr =  9.92E-04,  avg # of iterations =  5.2

     total cpu time spent up to now is       26.8 secs

     total energy              =   -1467.76845635 Ry
     estimated scf accuracy    <       0.32472123 Ry

     iteration #  5     ecut=    65.00 Ry     beta= 0.70
     Davidson diagonalization with overlap
     ethr =  7.55E-04,  avg # of iterations =  1.3

     total cpu time spent up to now is       31.2 secs

     total energy              =   -1467.73556627 Ry
     estimated scf accuracy    <       0.11223702 Ry

     iteration #  6     ecut=    65.00 Ry     beta= 0.70
     Davidson diagonalization with overlap
     ethr =  2.61E-04,  avg # of iterations =  6.0

     total cpu time spent up to now is       36.7 secs

     total energy              =   -1467.77532440 Ry
     estimated scf accuracy    <       0.00196446 Ry

     iteration #  7     ecut=    65.00 Ry     beta= 0.70
     Davidson diagonalization with overlap
     c_bands:  1 eigenvalues not converged
     c_bands:  1 eigenvalues not converged
     c_bands:  1 eigenvalues not converged
     c_bands:  1 eigenvalues not converged
     c_bands:  1 eigenvalues not converged
     ethr =  4.57E-06,  avg # of iterations = 16.6

     total cpu time spent up to now is       45.3 secs

     total energy              =   -1467.77370469 Ry
     estimated scf accuracy    <       0.03554637 Ry

     iteration #  8     ecut=    65.00 Ry     beta= 0.70
     Davidson diagonalization with overlap
     c_bands:  1 eigenvalues not converged
     ethr =  4.57E-06,  avg # of iterations =  7.5

     total cpu time spent up to now is       51.4 secs

     total energy              =   -1467.77245629 Ry
     estimated scf accuracy    <       0.00693680 Ry

     iteration #  9     ecut=    65.00 Ry     beta= 0.70
     Davidson diagonalization with overlap
     ethr =  4.57E-06,  avg # of iterations =  7.1

     total cpu time spent up to now is       57.7 secs

     total energy              =   -1467.77432347 Ry
     estimated scf accuracy    <       0.00023008 Ry

     iteration # 10     ecut=    65.00 Ry     beta= 0.70
     Davidson diagonalization with overlap
     ethr =  5.35E-07,  avg # of iterations =  2.4

     total cpu time spent up to now is       62.2 secs

     total energy              =   -1467.77425433 Ry
     estimated scf accuracy    <       0.00019797 Ry

     iteration # 11     ecut=    65.00 Ry     beta= 0.70
     Davidson diagonalization with overlap
     ethr =  4.60E-07,  avg # of iterations =  2.0

     total cpu time spent up to now is       66.9 secs

     total energy              =   -1467.77427468 Ry
     estimated scf accuracy    <       0.00002686 Ry

     iteration # 12     ecut=    65.00 Ry     beta= 0.70
     Davidson diagonalization with overlap
     ethr =  6.25E-08,  avg # of iterations =  5.3

     total cpu time spent up to now is       72.4 secs

     total energy              =   -1467.77428742 Ry
     estimated scf accuracy    <       0.00000783 Ry

     iteration # 13     ecut=    65.00 Ry     beta= 0.70
     Davidson diagonalization with overlap
     ethr =  1.82E-08,  avg # of iterations =  2.5

     total cpu time spent up to now is       77.3 secs

     total energy              =   -1467.77429563 Ry
     estimated scf accuracy    <       0.00001606 Ry

     iteration # 14     ecut=    65.00 Ry     beta= 0.70
     Davidson diagonalization with overlap
     ethr =  1.82E-08,  avg # of iterations =  5.3

     total cpu time spent up to now is       82.8 secs

     total energy              =   -1467.77430246 Ry
     estimated scf accuracy    <       0.00005876 Ry

     iteration # 15     ecut=    65.00 Ry     beta= 0.70
     Davidson diagonalization with overlap
     ethr =  1.82E-08,  avg # of iterations =  1.9

     total cpu time spent up to now is       87.2 secs

     total energy              =   -1467.77430364 Ry
     estimated scf accuracy    <       0.00007024 Ry

     iteration # 16     ecut=    65.00 Ry     beta= 0.70
     Davidson diagonalization with overlap
     ethr =  1.82E-08,  avg # of iterations =  1.4

     total cpu time spent up to now is       91.5 secs

     total energy              =   -1467.77430178 Ry
     estimated scf accuracy    <       0.00007579 Ry

     iteration # 17     ecut=    65.00 Ry     beta= 0.70
     Davidson diagonalization with overlap
     ethr =  1.82E-08,  avg # of iterations =  1.1

     total cpu time spent up to now is       95.7 secs

     total energy              =   -1467.77429216 Ry
     estimated scf accuracy    <       0.00007232 Ry

     iteration # 18     ecut=    65.00 Ry     beta= 0.70
     Davidson diagonalization with overlap
     ethr =  1.82E-08,  avg # of iterations =  1.0

     total cpu time spent up to now is      100.0 secs

     total energy              =   -1467.77428162 Ry
     estimated scf accuracy    <       0.00004814 Ry

     iteration # 19     ecut=    65.00 Ry     beta= 0.70
     Davidson diagonalization with overlap
     c_bands:  2 eigenvalues not converged
     ethr =  1.82E-08,  avg # of iterations =  6.5

     total cpu time spent up to now is      105.9 secs

     total energy              =   -1467.77428528 Ry
     estimated scf accuracy    <       0.00000953 Ry

     iteration # 20     ecut=    65.00 Ry     beta= 0.70
     Davidson diagonalization with overlap
     ethr =  1.82E-08,  avg # of iterations =  1.3

     total cpu time spent up to now is      110.2 secs

     total energy              =   -1467.77428148 Ry
     estimated scf accuracy    <       0.00000959 Ry

     iteration # 21     ecut=    65.00 Ry     beta= 0.70
     Davidson diagonalization with overlap
     ethr =  1.82E-08,  avg # of iterations =  2.3

     total cpu time spent up to now is      115.0 secs

     total energy              =   -1467.77428256 Ry
     estimated scf accuracy    <       0.00000065 Ry

     iteration # 22     ecut=    65.00 Ry     beta= 0.70
     Davidson diagonalization with overlap
     ethr =  1.51E-09,  avg # of iterations =  6.0

     total cpu time spent up to now is      121.0 secs

     total energy              =   -1467.77428354 Ry
     estimated scf accuracy    <       0.00000056 Ry

     iteration # 23     ecut=    65.00 Ry     beta= 0.70
     Davidson diagonalization with overlap
     ethr =  1.31E-09,  avg # of iterations =  1.3

     total cpu time spent up to now is      125.9 secs

     total energy              =   -1467.77428348 Ry
     estimated scf accuracy    <       0.00000034 Ry

     iteration # 24     ecut=    65.00 Ry     beta= 0.70
     Davidson diagonalization with overlap
     ethr =  7.87E-10,  avg # of iterations =  1.8

     total cpu time spent up to now is      130.6 secs

     total energy              =   -1467.77428349 Ry
     estimated scf accuracy    <       0.00000012 Ry

     iteration # 25     ecut=    65.00 Ry     beta= 0.70
     Davidson diagonalization with overlap
     ethr =  2.73E-10,  avg # of iterations =  2.0

     total cpu time spent up to now is      135.4 secs

     End of self-consistent calculation

          k = 0.0000 0.0000 0.0000 (  5185 PWs)   bands (ev):

   -17.3308 -13.1723 -13.1723 -12.7927 -12.7927 -12.7927  -8.8760  -6.5552
    -6.5552  -2.4411  -2.4411  -2.4411   3.2138   4.0389   4.0389   4.0389
     7.6424   7.6424   7.6424   7.8627   7.8627   7.8627  12.9884  12.9884
    14.0284  14.9177

          k = 0.0000 0.0000 0.2500 (  5201 PWs)   bands (ev):

   -17.3189 -13.1719 -13.0935 -12.7970 -12.7970 -12.7925  -8.7225  -7.0167
    -6.5493  -2.4033  -2.4033  -2.3827   1.6702   4.0482   4.0482   6.0276
     7.3771   7.5279   7.5279   7.7464   7.7464   8.2117  13.6501  13.6681
    15.0421  15.0565

          k = 0.0000 0.0000-0.5000 (  5230 PWs)   bands (ev):

   -17.3070 -13.1715 -13.0124 -12.8012 -12.8012 -12.7924  -8.3983  -7.6409
    -6.5434  -2.3647  -2.3647  -2.3418   1.0697   4.0503   4.0503   6.3995
     7.1469   7.4878   7.4878   7.5807   7.5807   9.7632  14.1341  14.3492
    15.2147  15.7470

          k = 0.0000 0.2500 0.2500 (  5185 PWs)   bands (ev):

   -17.3084 -13.1335 -13.0491 -12.8004 -12.7966 -12.7966  -8.5639  -7.1583
    -6.8089  -2.4483  -2.3732  -2.3595   0.5981   4.1225   5.4440   6.1408
     7.0256   7.3905   7.5906   7.6607   8.0304   8.6692  14.0126  14.4381
    15.1063  15.4697

          k = 0.0000 0.2500-0.5000 (  5206 PWs)   bands (ev):

   -17.2978 -13.1231 -12.9742 -12.8039 -12.8008 -12.7965  -8.2129  -7.6724
    -6.8914  -2.4254  -2.4155  -2.3427   0.0298   4.1965   5.8504   6.2744
     7.1128   7.3371   7.3665   7.6002   8.0320  10.1732  14.3141  14.8011
    15.0699  15.6187

          k = 0.0000-0.5000-0.5000 (  5216 PWs)   bands (ev):

   -17.2887 -13.0964 -12.9110 -12.8067 -12.8005 -12.8005  -7.7043  -7.7043
    -7.5776  -2.4824  -2.4824  -2.3205  -0.5634   4.3600   6.0977   7.1672
     7.1672   7.2661   7.2661   7.6209   8.3673  11.3179  14.1834  14.1834
    14.6843  15.0985

          k = 0.2500 0.2500 0.2500 (  5184 PWs)   bands (ev):

   -17.2988 -13.0487 -13.0487 -12.8009 -12.8009 -12.7998  -8.4147  -7.1371
    -7.1371  -2.4779  -2.4779  -2.3343  -0.3400   5.5108   5.5108   6.2101
     7.0523   7.0523   7.9432   7.9432   8.0118   9.0042  14.2797  14.2797
    14.8579  15.3451

          k = 0.2500 0.2500-0.5000 (  5184 PWs)   bands (ev):

   -17.2891 -13.0483 -12.9606 -12.8053 -12.8035 -12.8007  -8.0691  -7.6726
    -7.1156  -2.5080  -2.4934  -2.4045  -0.9182   5.5761   6.2528   6.4256
     6.9172   7.2138   7.7786   7.8667   8.1318  10.4548  13.6008  14.2786
    14.7716  15.2406

          k = 0.2500-0.5000-0.5000 (  5180 PWs)   bands (ev):

   -17.2802 -13.0056 -12.9109 -12.8081 -12.8050 -12.8050  -7.6734  -7.6734
    -7.6073  -2.5638  -2.5638  -2.4878  -1.5488   6.0406   6.5034   6.9405
     6.9405   7.6263   7.8950   7.8950   8.3925  11.5328  13.0712  13.0712
    13.8519  15.6763

          k =-0.5000-0.5000-0.5000 (  5232 PWs)   bands (ev):

   -17.2718 -12.9109 -12.9109 -12.8097 -12.8097 -12.8097  -7.6419  -7.6419
    -7.6419  -2.6449  -2.6449  -2.6449  -2.2553   6.9089   6.9089   6.9089
     7.6316   7.6316   8.4180   8.4180   8.4180  12.1823  12.1823  12.1823
    12.6835  16.6866

     the Fermi energy is    10.0640 ev

!    total energy              =   -1467.77428342 Ry
     total all-electron energy =    -59784.866066 Ry
     estimated scf accuracy    <       0.00000009 Ry
     smearing contrib. (-TS)   =      -0.00007766 Ry
     internal energy E=F+TS    =   -1467.77420577 Ry

     The total energy is F=E-TS. E is the sum of the following terms:
     one-electron contribution =     -84.12612123 Ry
     hartree contribution      =      73.69407711 Ry
     xc contribution           =     -75.27170175 Ry
     ewald contribution        =    -221.76066282 Ry
     one-center paw contrib.   =   -1160.30979708 Ry

     convergence has been achieved in  25 iterations

     Forces acting on atoms (cartesian axes, Ry/au):

     atom    1 type  1   force =     0.00000000    0.00000000    0.00000000
     atom    2 type  2   force =     0.00000000    0.00000000    0.00000000
     atom    3 type  3   force =     0.00000000    0.00000000    0.00000000
     atom    4 type  3   force =     0.00000000    0.00000000    0.00000000
     atom    5 type  3   force =     0.00000000    0.00000000    0.00000000

     Total force =     0.000000     Total SCF correction =     0.000000


     Computing stress (Cartesian axis) and pressure

          total   stress  (Ry/bohr**3)                   (kbar)     P=      -10.72
  -0.00007290   0.00000000   0.00000000          -10.72        0.00        0.00
   0.00000000  -0.00007290   0.00000000            0.00      -10.72        0.00
   0.00000000   0.00000000  -0.00007290            0.00        0.00      -10.72


     init_run     :      3.60s CPU      4.00s WALL (       1 calls)
     electrons    :    114.56s CPU    130.33s WALL (       1 calls)
     forces       :      1.13s CPU      1.32s WALL (       1 calls)
     stress       :      6.48s CPU      7.47s WALL (       1 calls)

     Called by init_run:
     wfcinit      :      0.92s CPU      0.98s WALL (       1 calls)
     potinit      :      0.83s CPU      0.87s WALL (       1 calls)
     hinit0       :      1.32s CPU      1.44s WALL (       1 calls)

     Called by electrons:
     c_bands      :     64.49s CPU     68.71s WALL (      25 calls)
     sum_band     :     22.91s CPU     28.73s WALL (      25 calls)
     v_of_rho     :      2.85s CPU      3.07s WALL (      26 calls)
     newd         :     10.96s CPU     15.76s WALL (      26 calls)
     PAW_pot      :     13.60s CPU     14.42s WALL (      26 calls)
     mix_rho      :      0.48s CPU      0.52s WALL (      25 calls)

     Called by c_bands:
     init_us_2    :      1.22s CPU      1.29s WALL (     530 calls)
     init_us_2:cp :      1.21s CPU      1.28s WALL (     530 calls)
     cegterg      :     61.66s CPU     65.66s WALL (     250 calls)

     Called by *egterg:
     cdiaghg      :      1.55s CPU      1.67s WALL (    1251 calls)
     h_psi        :     50.40s CPU     53.60s WALL (    1261 calls)
     s_psi        :      1.95s CPU      2.08s WALL (    1261 calls)
     g_psi        :      0.25s CPU      0.27s WALL (    1001 calls)

     Called by h_psi:
     h_psi:calbec :      2.35s CPU      2.52s WALL (    1261 calls)
     vloc_psi     :     45.65s CPU     48.52s WALL (    1261 calls)
     add_vuspsi   :      2.17s CPU      2.31s WALL (    1261 calls)

     General routines
     calbec       :      3.23s CPU      3.46s WALL (    1561 calls)
     fft          :      1.87s CPU      2.00s WALL (     361 calls)
     ffts         :      0.19s CPU      0.21s WALL (      51 calls)
     fftw         :     49.35s CPU     52.49s WALL (   41730 calls)
     interpolate  :      0.28s CPU      0.29s WALL (      26 calls)

     Parallel routines

     PWSCF        :   2m 6.73s CPU   2m24.20s WALL


   This run was terminated on:   1:23:31   6May2024            

=------------------------------------------------------------------------------=
   JOB DONE.
=------------------------------------------------------------------------------=
