
     Program PWSCF v.7.1 starts on  7May2024 at  2:30:14 

     This program is part of the open-source Quantum ESPRESSO suite
     for quantum simulation of materials; please cite
         "P. Giannozzi et al., J. Phys.:Condens. Matter 21 395502 (2009);
         "P. Giannozzi et al., J. Phys.:Condens. Matter 29 465901 (2017);
         "P. Giannozzi et al., J. Chem. Phys. 152 154105 (2020);
          URL http://www.quantum-espresso.org", 
     in publications or presentations arising from this work. More details at
     http://www.quantum-espresso.org/quote

     Parallel version (MPI), running on     2 processors

     MPI processes distributed on     1 nodes
     13629 MiB available memory on the printing compute node when the environment starts

     Waiting for input...
     Reading input from standard input
Warning: card &CELL ignored
Warning: card / ignored

     Current dimensions of program PWSCF are:
     Max number of different atomic species (ntypx) = 10
     Max number of k-points (npk) =  40000
     Max angular momentum in pseudopotentials (lmaxx) =  4
     file Mg.pbe-spnl-kjpaw_psl.1.0.0.UPF: wavefunction(s)  2P renormalized
     file O.pbe-n-kjpaw_psl.1.0.0.UPF: wavefunction(s)  2S 2P renormalized
     Message from routine setup:
     using ibrav=0 with symmetry is DISCOURAGED, use correct ibrav instead

     R & G space division:  proc/nbgrp/npool/nimage =       2
     Subspace diagonalization in iterative solution of the eigenvalue problem:
     a serial algorithm will be used


     Parallelization info
     --------------------
     sticks:   dense  smooth     PW     G-vecs:    dense   smooth      PW
     Min         594     297     93                13657     4788     819
     Max         595     298     94                13660     4789     820
     Sum        1189     595    187                27317     9577    1639

     Using Slab Decomposition



     bravais-lattice index     =            0
     lattice parameter (alat)  =       5.5588  a.u.
     unit-cell volume          =     121.4553 (a.u.)^3
     number of atoms/cell      =            2
     number of atomic types    =            2
     number of electrons       =        16.00
     number of Kohn-Sham states=           12
     kinetic-energy cutoff     =      70.0000  Ry
     charge density cutoff     =     560.0000  Ry
     scf convergence threshold =      1.0E-07
     mixing beta               =       0.7000
     number of iterations used =            8  plain     mixing
     energy convergence thresh.=      1.0E-04
     force convergence thresh. =      1.0E-03
     Exchange-correlation= SLA  PW   PBX  PBC
                           (   1   4   3   4   0   0   0)
     nstep                     =           50


     celldm(1)=   5.558751  celldm(2)=   0.000000  celldm(3)=   0.000000
     celldm(4)=   0.000000  celldm(5)=   0.000000  celldm(6)=   0.000000

     crystal axes: (cart. coord. in units of alat)
               a(1) = (   0.000000   0.707107   0.707107 )  
               a(2) = (   0.707107   0.000000   0.707107 )  
               a(3) = (   0.707107   0.707107   0.000000 )  

     reciprocal axes: (cart. coord. in units 2 pi/alat)
               b(1) = ( -0.707107  0.707107  0.707107 )  
               b(2) = (  0.707107 -0.707107  0.707107 )  
               b(3) = (  0.707107  0.707107 -0.707107 )  


     PseudoPot. # 1 for Mg read from file:
     /home/bond/Software/qe-7.1/pseudo/Mg.pbe-spnl-kjpaw_psl.1.0.0.UPF
     MD5 check sum: fda14e0d92a6a9a5ebed782e5a4b3067
     Pseudo is Projector augmented-wave + core cor, Zval = 10.0
     Generated using &quot;atomic&quot; code by A. Dal Corso  v.6.3
     Shape of augmentation charge: PSQ
     Using radial grid of 1129 points,  4 beta functions with: 
                l(1) =   0
                l(2) =   0
                l(3) =   1
                l(4) =   1
     Q(r) pseudized with 0 coefficients 


     PseudoPot. # 2 for O  read from file:
     /home/bond/Software/qe-7.1/pseudo/O.pbe-n-kjpaw_psl.1.0.0.UPF
     MD5 check sum: e99d9cef9b487d1ca56f5b95ecd0fd7a
     Pseudo is Projector augmented-wave + core cor, Zval =  6.0
     Generated using &quot;atomic&quot; code by A. Dal Corso  v.6.3
     Shape of augmentation charge: PSQ
     Using radial grid of 1095 points,  4 beta functions with: 
                l(1) =   0
                l(2) =   0
                l(3) =   1
                l(4) =   1
     Q(r) pseudized with 0 coefficients 


     atomic species   valence    mass     pseudopotential
        Mg            10.00    24.30500     Mg( 1.00)
        O              6.00    15.99900     O ( 1.00)

     48 Sym. Ops., with inversion, found



   Cartesian axes

     site n.     atom                  positions (alat units)
         1           Mg  tau(   1) = (   0.0000000   0.0000000   0.0000000  )
         2           O   tau(   2) = (   0.7071068   0.0000000   0.0000000  )

     number of k points=    10  Methfessel-Paxton smearing, width (Ry)=  0.0200
                       cart. coord. in units 2pi/alat
        k(    1) = (   0.0000000   0.0000000   0.0000000), wk =   0.0160000
        k(    2) = (   0.1414214   0.1414214  -0.1414214), wk =   0.1280000
        k(    3) = (   0.2828427   0.2828427  -0.2828427), wk =   0.1280000
        k(    4) = (   0.2828427   0.0000000   0.0000000), wk =   0.0960000
        k(    5) = (   0.4242641   0.1414214  -0.1414214), wk =   0.3840000
        k(    6) = (  -0.1414214  -0.4242641   0.4242641), wk =   0.3840000
        k(    7) = (   0.0000000  -0.2828427   0.2828427), wk =   0.1920000
        k(    8) = (   0.5656854   0.0000000   0.0000000), wk =   0.0960000
        k(    9) = (   0.0000000  -0.5656854   0.5656854), wk =   0.1920000
        k(   10) = (  -0.1414214  -0.4242641   0.7071068), wk =   0.3840000

     Dense  grid:    27317 G-vectors     FFT dimensions: (  45,  45,  45)

     Smooth grid:     9577 G-vectors     FFT dimensions: (  30,  30,  30)

     Estimated max dynamical RAM per process >      22.09 MB

     Estimated total dynamical RAM >      44.18 MB

     Check: negative core charge=   -0.000004

     Initial potential from superposition of free atoms

     starting charge      15.9991, renormalised to      16.0000
     Starting wfcs are    9 randomized atomic wfcs +    3 random wfcs
     Checking if some PAW data can be deallocated... 

     total cpu time spent up to now is        1.5 secs

     Self-consistent Calculation

     iteration #  1     ecut=    70.00 Ry     beta= 0.70
     Davidson diagonalization with overlap
     ethr =  1.00E-02,  avg # of iterations =  7.0

     total cpu time spent up to now is        2.1 secs

     total energy              =    -183.12428375 Ry
     estimated scf accuracy    <       0.40709538 Ry

     iteration #  2     ecut=    70.00 Ry     beta= 0.70
     Davidson diagonalization with overlap
     ethr =  2.54E-03,  avg # of iterations =  4.2

     total cpu time spent up to now is        2.7 secs

     total energy              =    -183.23978760 Ry
     estimated scf accuracy    <       0.37477275 Ry

     iteration #  3     ecut=    70.00 Ry     beta= 0.70
     Davidson diagonalization with overlap
     ethr =  2.34E-03,  avg # of iterations =  1.4

     total cpu time spent up to now is        3.1 secs

     total energy              =    -183.29376341 Ry
     estimated scf accuracy    <       0.00911536 Ry

     iteration #  4     ecut=    70.00 Ry     beta= 0.70
     Davidson diagonalization with overlap
     ethr =  5.70E-05,  avg # of iterations =  4.2

     total cpu time spent up to now is        3.7 secs

     total energy              =    -183.31061162 Ry
     estimated scf accuracy    <       0.04116943 Ry

     iteration #  5     ecut=    70.00 Ry     beta= 0.70
     Davidson diagonalization with overlap
     ethr =  5.70E-05,  avg # of iterations =  3.5

     total cpu time spent up to now is        4.2 secs

     total energy              =    -183.31155513 Ry
     estimated scf accuracy    <       0.00537766 Ry

     iteration #  6     ecut=    70.00 Ry     beta= 0.70
     Davidson diagonalization with overlap
     ethr =  3.36E-05,  avg # of iterations =  2.9

     total cpu time spent up to now is        4.7 secs

     total energy              =    -183.31309417 Ry
     estimated scf accuracy    <       0.00000755 Ry

     iteration #  7     ecut=    70.00 Ry     beta= 0.70
     Davidson diagonalization with overlap
     ethr =  4.72E-08,  avg # of iterations =  6.5

     total cpu time spent up to now is        5.3 secs

     total energy              =    -183.31312681 Ry
     estimated scf accuracy    <       0.00033772 Ry

     iteration #  8     ecut=    70.00 Ry     beta= 0.70
     Davidson diagonalization with overlap
     ethr =  4.72E-08,  avg # of iterations =  4.5

     total cpu time spent up to now is        5.9 secs

     total energy              =    -183.31316919 Ry
     estimated scf accuracy    <       0.00001737 Ry

     iteration #  9     ecut=    70.00 Ry     beta= 0.70
     Davidson diagonalization with overlap
     ethr =  4.72E-08,  avg # of iterations =  1.3

     total cpu time spent up to now is        6.4 secs

     total energy              =    -183.31316558 Ry
     estimated scf accuracy    <       0.00003953 Ry

     iteration # 10     ecut=    70.00 Ry     beta= 0.70
     Davidson diagonalization with overlap
     ethr =  4.72E-08,  avg # of iterations =  1.2

     total cpu time spent up to now is        6.8 secs

     total energy              =    -183.31316388 Ry
     estimated scf accuracy    <       0.00002690 Ry

     iteration # 11     ecut=    70.00 Ry     beta= 0.70
     Davidson diagonalization with overlap
     ethr =  4.72E-08,  avg # of iterations =  1.2

     total cpu time spent up to now is        7.2 secs

     total energy              =    -183.31315822 Ry
     estimated scf accuracy    <       0.00002095 Ry

     iteration # 12     ecut=    70.00 Ry     beta= 0.70
     Davidson diagonalization with overlap
     ethr =  4.72E-08,  avg # of iterations =  2.1

     total cpu time spent up to now is        7.6 secs

     total energy              =    -183.31315875 Ry
     estimated scf accuracy    <       0.00000587 Ry

     iteration # 13     ecut=    70.00 Ry     beta= 0.70
     Davidson diagonalization with overlap
     ethr =  3.67E-08,  avg # of iterations =  1.9

     total cpu time spent up to now is        8.1 secs

     total energy              =    -183.31315829 Ry
     estimated scf accuracy    <       0.00000353 Ry

     iteration # 14     ecut=    70.00 Ry     beta= 0.70
     Davidson diagonalization with overlap
     ethr =  2.20E-08,  avg # of iterations =  1.3

     total cpu time spent up to now is        8.5 secs

     total energy              =    -183.31315869 Ry
     estimated scf accuracy    <       0.00000134 Ry

     iteration # 15     ecut=    70.00 Ry     beta= 0.70
     Davidson diagonalization with overlap
     ethr =  8.36E-09,  avg # of iterations =  1.5

     total cpu time spent up to now is        8.9 secs

     total energy              =    -183.31315754 Ry
     estimated scf accuracy    <       0.00000213 Ry

     iteration # 16     ecut=    70.00 Ry     beta= 0.70
     Davidson diagonalization with overlap
     ethr =  8.36E-09,  avg # of iterations =  3.8

     total cpu time spent up to now is        9.4 secs

     total energy              =    -183.31315820 Ry
     estimated scf accuracy    <       0.00000012 Ry

     iteration # 17     ecut=    70.00 Ry     beta= 0.70
     Davidson diagonalization with overlap
     ethr =  7.50E-10,  avg # of iterations =  2.7

     total cpu time spent up to now is        9.8 secs

     total energy              =    -183.31315824 Ry
     estimated scf accuracy    <       0.00000017 Ry

     iteration # 18     ecut=    70.00 Ry     beta= 0.70
     Davidson diagonalization with overlap
     ethr =  7.50E-10,  avg # of iterations =  1.2

     total cpu time spent up to now is       10.2 secs

     total energy              =    -183.31315825 Ry
     estimated scf accuracy    <       0.00000017 Ry

     iteration # 19     ecut=    70.00 Ry     beta= 0.70
     Davidson diagonalization with overlap
     ethr =  7.50E-10,  avg # of iterations =  1.0

     total cpu time spent up to now is       10.6 secs

     total energy              =    -183.31315826 Ry
     estimated scf accuracy    <       0.00000020 Ry

     iteration # 20     ecut=    70.00 Ry     beta= 0.70
     Davidson diagonalization with overlap
     ethr =  7.50E-10,  avg # of iterations =  1.0

     total cpu time spent up to now is       11.1 secs

     total energy              =    -183.31315829 Ry
     estimated scf accuracy    <       0.00000023 Ry

     iteration # 21     ecut=    70.00 Ry     beta= 0.70
     Davidson diagonalization with overlap
     ethr =  7.50E-10,  avg # of iterations =  1.0

     total cpu time spent up to now is       11.5 secs

     total energy              =    -183.31315820 Ry
     estimated scf accuracy    <       0.00000034 Ry

     iteration # 22     ecut=    70.00 Ry     beta= 0.70
     Davidson diagonalization with overlap
     ethr =  7.50E-10,  avg # of iterations =  1.1

     total cpu time spent up to now is       11.9 secs

     End of self-consistent calculation

          k = 0.0000 0.0000 0.0000 (  1243 PWs)   bands (ev):

   -63.9313 -30.6459 -30.6459 -30.6459  -9.1870   8.2548   8.2548   8.2548
    13.3656  24.3085  24.3085  24.3085

          k = 0.1414 0.1414-0.1414 (  1215 PWs)   bands (ev):

   -63.9277 -30.6804 -30.6489 -30.6489  -8.7517   6.2423   8.0012   8.0012
    15.1801  21.5296  25.0934  25.0934

          k = 0.2828 0.2828-0.2828 (  1188 PWs)   bands (ev):

   -63.9218 -30.7361 -30.6540 -30.6540  -7.9322   3.8580   7.6227   7.6227
    16.3803  21.0935  25.1111  25.1111

          k = 0.2828 0.0000 0.0000 (  1203 PWs)   bands (ev):

   -63.9265 -30.6770 -30.6567 -30.6567  -8.6282   6.1870   7.7103   7.7103
    15.8568  20.4500  25.5066  25.6120

          k = 0.4243 0.1414-0.1414 (  1202 PWs)   bands (ev):

   -63.9214 -30.7167 -30.6669 -30.6638  -7.9670   4.6048   6.9605   7.3460
    17.6052  19.8107  23.0846  26.1347

          k =-0.1414-0.4243 0.4243 (  1199 PWs)   bands (ev):

   -63.9195 -30.7304 -30.6789 -30.6601  -7.6606   4.0748   6.2896   7.3839
    17.9670  20.8999  22.4300  25.9168

          k = 0.0000-0.2828 0.2828 (  1207 PWs)   bands (ev):

   -63.9233 -30.7058 -30.6704 -30.6507  -8.1979   5.0731   6.8680   7.7808
    17.0807  20.3868  23.8378  26.5687

          k = 0.5657 0.0000 0.0000 (  1202 PWs)   bands (ev):

   -63.9188 -30.7227 -30.6753 -30.6753  -7.7047   4.2874   6.9748   6.9748
    17.7883  18.5335  21.9067  27.5070

          k = 0.0000-0.5657 0.5657 (  1190 PWs)   bands (ev):

   -63.9175 -30.7199 -30.6937 -30.6730  -7.5127   4.4382   5.8355   6.9949
    18.3006  19.9552  21.3391  27.1073

          k =-0.1414-0.4243 0.7071 (  1197 PWs)   bands (ev):

   -63.9183 -30.7156 -30.6923 -30.6724  -7.5741   4.6538   5.7975   6.8185
    19.6221  19.7047  21.3814  25.2959

     the Fermi energy is    12.0630 ev

!    total energy              =    -183.31315815 Ry
     total all-electron energy =      -551.430317 Ry
     estimated scf accuracy    <       0.00000009 Ry
     smearing contrib. (-TS)   =       0.00000000 Ry
     internal energy E=F+TS    =    -183.31315815 Ry

     The total energy is F=E-TS. E is the sum of the following terms:
     one-electron contribution =     -86.22919242 Ry
     hartree contribution      =      48.76074127 Ry
     xc contribution           =     -25.35464994 Ry
     ewald contribution        =     -95.95270010 Ry
     one-center paw contrib.   =     -24.53735695 Ry

     convergence has been achieved in  22 iterations

     Forces acting on atoms (cartesian axes, Ry/au):

     atom    1 type  1   force =     0.00000000    0.00000000   -0.00000000
     atom    2 type  2   force =     0.00000000    0.00000000   -0.00000000

     Total force =     0.000000     Total SCF correction =     0.000000


     Computing stress (Cartesian axis) and pressure

          total   stress  (Ry/bohr**3)                   (kbar)     P=      103.51
   0.00070364   0.00000000   0.00000000          103.51        0.00        0.00
   0.00000000   0.00070364   0.00000000            0.00      103.51        0.00
   0.00000000   0.00000000   0.00070364            0.00        0.00      103.51


     BFGS Geometry Optimization
     Energy error            =      0.0E+00 Ry
     Gradient error          =      1.7E-32 Ry/Bohr

     bfgs converged in   1 scf cycles and   0 bfgs steps
     (criteria: energy <  1.0E-04 Ry, force <  1.0E-03 Ry/Bohr)

     End of BFGS Geometry Optimization

     Final energy             =    -183.3131581464 Ry
Begin final coordinates

ATOMIC_POSITIONS (angstrom)
Mg            0.0000000000        0.0000000000        0.0000000000
O             2.0800000000        0.0000000000        0.0000000000
End final coordinates



     init_run     :      1.01s CPU      1.14s WALL (       1 calls)
     electrons    :      9.60s CPU     10.41s WALL (       1 calls)
     forces       :      0.11s CPU      0.11s WALL (       1 calls)
     stress       :      0.36s CPU      0.38s WALL (       1 calls)

     Called by init_run:
     wfcinit      :      0.10s CPU      0.10s WALL (       1 calls)
     potinit      :      0.25s CPU      0.26s WALL (       1 calls)
     hinit0       :      0.47s CPU      0.55s WALL (       1 calls)

     Called by electrons:
     c_bands      :      5.25s CPU      5.75s WALL (      22 calls)
     sum_band     :      1.66s CPU      1.76s WALL (      22 calls)
     v_of_rho     :      0.91s CPU      0.99s WALL (      23 calls)
     newd         :      0.45s CPU      0.49s WALL (      23 calls)
     PAW_pot      :      1.26s CPU      1.32s WALL (      23 calls)
     mix_rho      :      0.11s CPU      0.14s WALL (      22 calls)

     Called by c_bands:
     init_us_2    :      0.13s CPU      0.13s WALL (     470 calls)
     init_us_2:cp :      0.13s CPU      0.13s WALL (     470 calls)
     cegterg      :      5.07s CPU      5.54s WALL (     220 calls)

     Called by *egterg:
     cdiaghg      :      0.24s CPU      0.26s WALL (     785 calls)
     h_psi        :      4.34s CPU      4.74s WALL (     795 calls)
     s_psi        :      0.06s CPU      0.06s WALL (     795 calls)
     g_psi        :      0.02s CPU      0.02s WALL (     565 calls)

     Called by h_psi:
     h_psi:calbec :      0.11s CPU      0.12s WALL (     795 calls)
     vloc_psi     :      4.13s CPU      4.51s WALL (     795 calls)
     add_vuspsi   :      0.07s CPU      0.08s WALL (     795 calls)

     General routines
     calbec       :      0.14s CPU      0.15s WALL (    1065 calls)
     fft          :      0.66s CPU      0.76s WALL (     322 calls)
     ffts         :      0.14s CPU      0.14s WALL (      45 calls)
     fftw         :      4.50s CPU      4.93s WALL (   15370 calls)
     interpolate  :      0.18s CPU      0.18s WALL (      23 calls)

     Parallel routines

     PWSCF        :     11.41s CPU     12.41s WALL


   This run was terminated on:   2:30:26   7May2024            

=------------------------------------------------------------------------------=
   JOB DONE.
=------------------------------------------------------------------------------=
