
     Program PWSCF v.7.1 starts on  6May2024 at  8:11:47 

     This program is part of the open-source Quantum ESPRESSO suite
     for quantum simulation of materials; please cite
         "P. Giannozzi et al., J. Phys.:Condens. Matter 21 395502 (2009);
         "P. Giannozzi et al., J. Phys.:Condens. Matter 29 465901 (2017);
         "P. Giannozzi et al., J. Chem. Phys. 152 154105 (2020);
          URL http://www.quantum-espresso.org", 
     in publications or presentations arising from this work. More details at
     http://www.quantum-espresso.org/quote

     Parallel version (MPI), running on     2 processors

     MPI processes distributed on     1 nodes
     13684 MiB available memory on the printing compute node when the environment starts

     Waiting for input...
     Reading input from standard input
Warning: card &CELL ignored
Warning: card / ignored

     Current dimensions of program PWSCF are:
     Max number of different atomic species (ntypx) = 10
     Max number of k-points (npk) =  40000
     Max angular momentum in pseudopotentials (lmaxx) =  4
     file Ba.pbe-spn-kjpaw_psl.1.0.0.UPF: wavefunction(s)  5S 6S renormalized
     file Bi.pbe-dn-kjpaw_psl.1.0.0.UPF: wavefunction(s)  6P 5D renormalized
     file N.pbe-n-kjpaw_psl.1.0.0.UPF: wavefunction(s)  2S renormalized
     file O.pbe-n-kjpaw_psl.1.0.0.UPF: wavefunction(s)  2S 2P renormalized
     Message from routine setup:
     using ibrav=0 with symmetry is DISCOURAGED, use correct ibrav instead

     R & G space division:  proc/nbgrp/npool/nimage =       2
     Subspace diagonalization in iterative solution of the eigenvalue problem:
     a serial algorithm will be used


     Parallelization info
     --------------------
     sticks:   dense  smooth     PW     G-vecs:    dense   smooth      PW
     Min        1574     790    218                66608    23544    3536
     Max        1575     791    219                66611    23545    3539
     Sum        3149    1581    437               133219    47089    7075

     Using Slab Decomposition



     bravais-lattice index     =            0
     lattice parameter (alat)  =       8.4093  a.u.
     unit-cell volume          =     594.6708 (a.u.)^3
     number of atoms/cell      =            5
     number of atomic types    =            4
     number of electrons       =        42.00
     number of Kohn-Sham states=           21
     kinetic-energy cutoff     =      70.0000  Ry
     charge density cutoff     =     560.0000  Ry
     scf convergence threshold =      1.0E-07
     mixing beta               =       0.7000
     number of iterations used =            8  plain     mixing
     Exchange-correlation= SLA  PW   PBX  PBC
                           (   1   4   3   4   0   0   0)

     celldm(1)=   8.409281  celldm(2)=   0.000000  celldm(3)=   0.000000
     celldm(4)=   0.000000  celldm(5)=   0.000000  celldm(6)=   0.000000

     crystal axes: (cart. coord. in units of alat)
               a(1) = (   1.000000   0.000000   0.000000 )  
               a(2) = (   0.000000   1.000000   0.000000 )  
               a(3) = (   0.000000   0.000000   1.000000 )  

     reciprocal axes: (cart. coord. in units 2 pi/alat)
               b(1) = (  1.000000  0.000000  0.000000 )  
               b(2) = (  0.000000  1.000000  0.000000 )  
               b(3) = (  0.000000  0.000000  1.000000 )  


     PseudoPot. # 1 for Ba read from file:
     /home/bond/Software/qe-7.1/pseudo/Ba.pbe-spn-kjpaw_psl.1.0.0.UPF
     MD5 check sum: 7cfe25f1fe7574a4710541d5a11d6531
     Pseudo is Projector augmented-wave + core cor, Zval = 10.0
     Generated using &quot;atomic&quot; code by A. Dal Corso  v.6.2.2
     Shape of augmentation charge: PSQ
     Using radial grid of 1251 points,  7 beta functions with: 
                l(1) =   0
                l(2) =   0
                l(3) =   0
                l(4) =   1
                l(5) =   1
                l(6) =   2
                l(7) =   2
     Q(r) pseudized with 0 coefficients 


     PseudoPot. # 2 for Bi read from file:
     /home/bond/Software/qe-7.1/pseudo/Bi.pbe-dn-kjpaw_psl.1.0.0.UPF
     MD5 check sum: 266ded784ae3bc462508ed03f0f37963
     Pseudo is Projector augmented-wave + core cor, Zval = 15.0
     Generated using &quot;atomic&quot; code by A. Dal Corso  v.6.2.2
     Shape of augmentation charge: PSQ
     Using radial grid of 1283 points,  6 beta functions with: 
                l(1) =   0
                l(2) =   0
                l(3) =   1
                l(4) =   1
                l(5) =   2
                l(6) =   2
     Q(r) pseudized with 0 coefficients 


     PseudoPot. # 3 for N  read from file:
     /home/bond/Software/qe-7.1/pseudo/N.pbe-n-kjpaw_psl.1.0.0.UPF
     MD5 check sum: 14c48229446f9f2d411169a3abcbc3fa
     Pseudo is Projector augmented-wave + core cor, Zval =  5.0
     Generated using &quot;atomic&quot; code by A. Dal Corso  v.6.3
     Shape of augmentation charge: PSQ
     Using radial grid of 1085 points,  4 beta functions with: 
                l(1) =   0
                l(2) =   0
                l(3) =   1
                l(4) =   1
     Q(r) pseudized with 0 coefficients 


     PseudoPot. # 4 for O  read from file:
     /home/bond/Software/qe-7.1/pseudo/O.pbe-n-kjpaw_psl.1.0.0.UPF
     MD5 check sum: e99d9cef9b487d1ca56f5b95ecd0fd7a
     Pseudo is Projector augmented-wave + core cor, Zval =  6.0
     Generated using &quot;atomic&quot; code by A. Dal Corso  v.6.3
     Shape of augmentation charge: PSQ
     Using radial grid of 1095 points,  4 beta functions with: 
                l(1) =   0
                l(2) =   0
                l(3) =   1
                l(4) =   1
     Q(r) pseudized with 0 coefficients 


     atomic species   valence    mass     pseudopotential
        Ba            10.00   137.32700     Ba( 1.00)
        Bi            15.00   208.98040     Bi( 1.00)
        N              5.00    14.00700     N ( 1.00)
        O              6.00    15.99900     O ( 1.00)

     16 Sym. Ops., with inversion, found



   Cartesian axes

     site n.     atom                  positions (alat units)
         1           Ba  tau(   1) = (   0.5000000   0.5000000   0.5000000  )
         2           Bi  tau(   2) = (   0.0000000   0.0000000   0.0000000  )
         3           O   tau(   3) = (   0.0000000   0.0000000   0.5000000  )
         4           O   tau(   4) = (   0.5000000   0.0000000   0.0000000  )
         5           N   tau(   5) = (   0.0000000   0.5000000   0.0000000  )

     number of k points=    18
                       cart. coord. in units 2pi/alat
        k(    1) = (   0.0000000   0.0000000   0.0000000), wk =   0.0160000
        k(    2) = (   0.0000000   0.0000000   0.2000000), wk =   0.0640000
        k(    3) = (   0.0000000   0.0000000   0.4000000), wk =   0.0640000
        k(    4) = (   0.0000000   0.2000000   0.2000000), wk =   0.1280000
        k(    5) = (   0.0000000   0.2000000   0.4000000), wk =   0.1280000
        k(    6) = (   0.0000000   0.4000000   0.4000000), wk =   0.1280000
        k(    7) = (   0.2000000   0.2000000   0.2000000), wk =   0.1280000
        k(    8) = (   0.2000000   0.2000000   0.4000000), wk =   0.2560000
        k(    9) = (   0.2000000   0.4000000   0.4000000), wk =   0.2560000
        k(   10) = (   0.4000000   0.4000000   0.4000000), wk =   0.1280000
        k(   11) = (   0.0000000   0.2000000   0.0000000), wk =   0.0320000
        k(   12) = (   0.0000000   0.4000000   0.0000000), wk =   0.0320000
        k(   13) = (   0.2000000   0.0000000   0.2000000), wk =   0.0640000
        k(   14) = (   0.2000000   0.4000000   0.0000000), wk =   0.1280000
        k(   15) = (   0.4000000   0.0000000   0.2000000), wk =   0.1280000
        k(   16) = (   0.4000000   0.0000000   0.4000000), wk =   0.0640000
        k(   17) = (   0.2000000   0.4000000   0.2000000), wk =   0.1280000
        k(   18) = (   0.4000000   0.2000000   0.4000000), wk =   0.1280000

     Dense  grid:   133219 G-vectors     FFT dimensions: (  64,  64,  64)

     Smooth grid:    47089 G-vectors     FFT dimensions: (  45,  45,  45)

     Estimated max dynamical RAM per process >     296.84 MB

     Estimated total dynamical RAM >     593.67 MB

     Initial potential from superposition of free atoms

     starting charge      41.9822, renormalised to      42.0000
     Starting wfcs are   26 randomized atomic wfcs
     Checking if some PAW data can be deallocated... 

     total cpu time spent up to now is        7.2 secs

     Self-consistent Calculation

     iteration #  1     ecut=    70.00 Ry     beta= 0.70
     Davidson diagonalization with overlap
     ethr =  1.00E-02,  avg # of iterations =  1.9

     total cpu time spent up to now is       14.3 secs

     total energy              =   -1453.12248311 Ry
     estimated scf accuracy    <       1.63259343 Ry

     iteration #  2     ecut=    70.00 Ry     beta= 0.70
     Davidson diagonalization with overlap
     ethr =  3.89E-03,  avg # of iterations =  5.8

     total cpu time spent up to now is       23.9 secs

     total energy              =   -1453.70548729 Ry
     estimated scf accuracy    <       2.69979299 Ry

     iteration #  3     ecut=    70.00 Ry     beta= 0.70
     Davidson diagonalization with overlap
     ethr =  3.89E-03,  avg # of iterations =  2.7

     total cpu time spent up to now is       31.8 secs

     total energy              =   -1453.85120329 Ry
     estimated scf accuracy    <       0.46897852 Ry

     iteration #  4     ecut=    70.00 Ry     beta= 0.70
     Davidson diagonalization with overlap
     ethr =  1.12E-03,  avg # of iterations =  5.4

     total cpu time spent up to now is       40.6 secs

     total energy              =   -1454.13345708 Ry
     estimated scf accuracy    <       0.07571171 Ry

     iteration #  5     ecut=    70.00 Ry     beta= 0.70
     Davidson diagonalization with overlap
     ethr =  1.80E-04,  avg # of iterations =  5.4

     total cpu time spent up to now is       49.4 secs

     total energy              =   -1454.14102023 Ry
     estimated scf accuracy    <       0.11385612 Ry

     iteration #  6     ecut=    70.00 Ry     beta= 0.70
     Davidson diagonalization with overlap
     ethr =  1.80E-04,  avg # of iterations =  1.2

     total cpu time spent up to now is       56.0 secs

     total energy              =   -1454.10181740 Ry
     estimated scf accuracy    <       0.08026224 Ry

     iteration #  7     ecut=    70.00 Ry     beta= 0.70
     Davidson diagonalization with overlap
     ethr =  1.80E-04,  avg # of iterations =  5.4

     total cpu time spent up to now is       65.3 secs

     total energy              =   -1454.13031583 Ry
     estimated scf accuracy    <       0.01292566 Ry

     iteration #  8     ecut=    70.00 Ry     beta= 0.70
     Davidson diagonalization with overlap
     ethr =  3.08E-05,  avg # of iterations =  5.6

     total cpu time spent up to now is       72.9 secs

     total energy              =   -1454.14125182 Ry
     estimated scf accuracy    <       0.02284647 Ry

     iteration #  9     ecut=    70.00 Ry     beta= 0.70
     Davidson diagonalization with overlap
     ethr =  3.08E-05,  avg # of iterations =  4.6

     total cpu time spent up to now is       80.4 secs

     total energy              =   -1454.12310527 Ry
     estimated scf accuracy    <       0.07639108 Ry

     iteration # 10     ecut=    70.00 Ry     beta= 0.70
     Davidson diagonalization with overlap
     ethr =  3.08E-05,  avg # of iterations =  5.6

     total cpu time spent up to now is       88.7 secs

     total energy              =   -1454.12258071 Ry
     estimated scf accuracy    <       0.01004099 Ry

     iteration # 11     ecut=    70.00 Ry     beta= 0.70
     Davidson diagonalization with overlap
     ethr =  2.39E-05,  avg # of iterations =  9.2

     total cpu time spent up to now is       98.9 secs

     total energy              =   -1454.12778906 Ry
     estimated scf accuracy    <       0.02409230 Ry

     iteration # 12     ecut=    70.00 Ry     beta= 0.70
     Davidson diagonalization with overlap
     ethr =  2.39E-05,  avg # of iterations =  2.6

     total cpu time spent up to now is      107.4 secs

     total energy              =   -1454.12702747 Ry
     estimated scf accuracy    <       0.01054648 Ry

     iteration # 13     ecut=    70.00 Ry     beta= 0.70
     Davidson diagonalization with overlap
     ethr =  2.39E-05,  avg # of iterations =  2.7

     total cpu time spent up to now is      116.6 secs

     total energy              =   -1454.12742336 Ry
     estimated scf accuracy    <       0.00389985 Ry

     iteration # 14     ecut=    70.00 Ry     beta= 0.70
     Davidson diagonalization with overlap
     ethr =  9.29E-06,  avg # of iterations =  6.8

     total cpu time spent up to now is      127.4 secs

     total energy              =   -1454.12907803 Ry
     estimated scf accuracy    <       0.00016877 Ry

     iteration # 15     ecut=    70.00 Ry     beta= 0.70
     Davidson diagonalization with overlap
     ethr =  4.02E-07,  avg # of iterations =  7.8

     total cpu time spent up to now is      139.3 secs

     total energy              =   -1454.12954112 Ry
     estimated scf accuracy    <       0.00025303 Ry

     iteration # 16     ecut=    70.00 Ry     beta= 0.70
     Davidson diagonalization with overlap
     ethr =  4.02E-07,  avg # of iterations =  1.1

     total cpu time spent up to now is      147.7 secs

     total energy              =   -1454.12955419 Ry
     estimated scf accuracy    <       0.00023344 Ry

     iteration # 17     ecut=    70.00 Ry     beta= 0.70
     Davidson diagonalization with overlap
     ethr =  4.02E-07,  avg # of iterations =  1.1

     total cpu time spent up to now is      155.3 secs

     total energy              =   -1454.12951376 Ry
     estimated scf accuracy    <       0.00025324 Ry

     iteration # 18     ecut=    70.00 Ry     beta= 0.70
     Davidson diagonalization with overlap
     ethr =  4.02E-07,  avg # of iterations =  1.2

     total cpu time spent up to now is      163.4 secs

     total energy              =   -1454.12946172 Ry
     estimated scf accuracy    <       0.00016411 Ry

     iteration # 19     ecut=    70.00 Ry     beta= 0.70
     Davidson diagonalization with overlap
     ethr =  3.91E-07,  avg # of iterations =  3.9

     total cpu time spent up to now is      173.2 secs

     total energy              =   -1454.12948962 Ry
     estimated scf accuracy    <       0.00000626 Ry

     iteration # 20     ecut=    70.00 Ry     beta= 0.70
     Davidson diagonalization with overlap
     c_bands:  1 eigenvalues not converged
     ethr =  1.49E-08,  avg # of iterations = 11.5

     total cpu time spent up to now is      188.3 secs

     total energy              =   -1454.12950781 Ry
     estimated scf accuracy    <       0.00005633 Ry

     iteration # 21     ecut=    70.00 Ry     beta= 0.70
     Davidson diagonalization with overlap
     ethr =  1.49E-08,  avg # of iterations =  2.5

     total cpu time spent up to now is      197.2 secs

     total energy              =   -1454.12949790 Ry
     estimated scf accuracy    <       0.00003798 Ry

     iteration # 22     ecut=    70.00 Ry     beta= 0.70
     Davidson diagonalization with overlap
     ethr =  1.49E-08,  avg # of iterations =  8.4

     total cpu time spent up to now is      210.4 secs

     total energy              =   -1454.12950456 Ry
     estimated scf accuracy    <       0.00000017 Ry

     iteration # 23     ecut=    70.00 Ry     beta= 0.70
     Davidson diagonalization with overlap
     c_bands:  2 eigenvalues not converged
     c_bands:  1 eigenvalues not converged
     ethr =  4.07E-10,  avg # of iterations = 14.7

     total cpu time spent up to now is      227.3 secs

     total energy              =   -1454.12950509 Ry
     estimated scf accuracy    <       0.00000246 Ry

     iteration # 24     ecut=    70.00 Ry     beta= 0.70
     Davidson diagonalization with overlap
     ethr =  4.07E-10,  avg # of iterations =  3.1

     total cpu time spent up to now is      236.5 secs

     total energy              =   -1454.12950448 Ry
     estimated scf accuracy    <       0.00000175 Ry

     iteration # 25     ecut=    70.00 Ry     beta= 0.70
     Davidson diagonalization with overlap
     ethr =  4.07E-10,  avg # of iterations = 11.6

     total cpu time spent up to now is      251.8 secs

     total energy              =   -1454.12950499 Ry
     estimated scf accuracy    <       0.00000019 Ry

     iteration # 26     ecut=    70.00 Ry     beta= 0.70
     Davidson diagonalization with overlap
     ethr =  4.07E-10,  avg # of iterations =  1.4

     total cpu time spent up to now is      260.1 secs

     total energy              =   -1454.12950497 Ry
     estimated scf accuracy    <       0.00000022 Ry

     iteration # 27     ecut=    70.00 Ry     beta= 0.70
     Davidson diagonalization with overlap
     ethr =  4.07E-10,  avg # of iterations =  1.2

     total cpu time spent up to now is      268.5 secs

     total energy              =   -1454.12950494 Ry
     estimated scf accuracy    <       0.00000016 Ry

     iteration # 28     ecut=    70.00 Ry     beta= 0.70
     Davidson diagonalization with overlap
     ethr =  3.90E-10,  avg # of iterations =  1.3

     total cpu time spent up to now is      277.3 secs

     End of self-consistent calculation

          k = 0.0000 0.0000 0.0000 (  5887 PWs)   bands (ev):

   -17.2554 -13.6685 -13.5589 -13.3233 -13.2875 -13.2875  -8.6887  -6.8784
    -3.2906  -2.4165  -2.3732  -2.3732   3.6302   3.7829   3.7829   4.3610
     7.4305   7.4949   7.4949   8.0033   8.8553

          k = 0.0000 0.0000 0.2000 (  5870 PWs)   bands (ev):

   -17.2479 -13.6373 -13.5390 -13.3259 -13.2901 -13.2874  -8.5884  -7.1080
    -3.5822  -2.3907  -2.3468  -2.1955   2.3499   3.7946   4.3777   5.6262
     7.3569   7.4361   7.4777   7.8878   8.5989

          k = 0.0000 0.0000 0.4000 (  5894 PWs)   bands (ev):

   -17.2356 -13.6111 -13.4802 -13.3300 -13.2943 -13.2872  -8.2585  -7.6675
    -3.8819  -2.3482  -2.3034  -2.0781   1.8265   3.8086   4.3945   6.3759
     7.3346   7.3467   7.6319   7.7264   8.4270

          k = 0.0000 0.2000 0.2000 (  5856 PWs)   bands (ev):

   -17.2406 -13.6362 -13.5198 -13.3257 -13.2924 -13.2899  -8.5708  -7.1001
    -3.6406  -2.3713  -2.3242  -2.1817   1.1522   3.8180   5.0106   6.1342
     7.1354   7.3253   7.5046   8.5356   8.6184

          k = 0.0000 0.2000 0.4000 (  5882 PWs)   bands (ev):

   -17.2293 -13.6059 -13.4639 -13.3299 -13.2961 -13.2898  -8.2276  -7.6558
    -3.9033  -2.3839  -2.2870  -2.0724   0.6048   3.8798   5.7851   6.3977
     6.9753   7.2116   7.6429   8.3464   8.3985

          k = 0.0000 0.4000 0.4000 (  5912 PWs)   bands (ev):

   -17.2191 -13.5997 -13.4353 -13.3296 -13.2991 -13.2939  -8.1838  -7.6220
    -3.9523  -2.4437  -2.2602  -1.9888  -0.6154   4.0004   6.2972   6.7959
     7.0088   7.0279   7.7583   8.2055   8.9586

          k = 0.2000 0.2000 0.2000 (  5884 PWs)   bands (ev):

   -17.2340 -13.5930 -13.5104 -13.3282 -13.2926 -13.2922  -8.4774  -7.2658
    -3.8069  -2.3840  -2.3818  -2.1331   0.5539   4.7420   5.2146   6.1466
     7.1065   7.2134   7.6371   8.4661   8.6740

          k = 0.2000 0.2000 0.4000 (  5873 PWs)   bands (ev):

   -17.2233 -13.5518 -13.4637 -13.3320 -13.2962 -13.2924  -8.1795  -7.7019
    -4.0388  -2.4171  -2.3502  -2.2200   0.0856   5.0339   5.9403   6.2926
     6.9967   7.2963   7.6574   8.3590   8.5992

          k = 0.2000 0.4000 0.4000 (  5896 PWs)   bands (ev):

   -17.2134 -13.5455 -13.4347 -13.3323 -13.2998 -13.2965  -8.1361  -7.6711
    -3.8878  -2.4942  -2.3815  -2.1538  -1.2570   5.1784   6.4660   6.7411
     6.9968   7.3272   7.7542   8.5564   9.0259

          k = 0.4000 0.4000 0.4000 (  5860 PWs)   bands (ev):

   -17.2041 -13.4598 -13.4282 -13.3366 -13.3011 -13.3006  -7.9996  -7.8149
    -3.8017  -2.5654  -2.5353  -2.4647  -1.9470   6.5863   6.7995   6.9254
     7.0114   7.7594   7.9927   8.9955   9.1368

          k = 0.0000 0.2000 0.0000 (  5870 PWs)   bands (ev):

   -17.2475 -13.6682 -13.5394 -13.3232 -13.2901 -13.2901  -8.6771  -6.8746
    -3.3944  -2.3625  -2.3467  -2.3467   1.9493   3.7793   3.7793   6.0966
     7.2565   7.3967   7.3967   8.4774   8.8135

          k = 0.0000 0.4000 0.0000 (  5894 PWs)   bands (ev):

   -17.2345 -13.6679 -13.5080 -13.3230 -13.2943 -13.2943  -8.6559  -6.8686
    -3.5303  -2.3309  -2.3032  -2.3032   0.8823   3.7671   3.7671   6.5133
     7.0076   7.2612   7.2612   8.7461   8.7461

          k = 0.2000 0.0000 0.2000 (  5856 PWs)   bands (ev):

   -17.2408 -13.5932 -13.5309 -13.3282 -13.2900 -13.2899  -8.4990  -7.2762
    -3.8076  -2.3787  -2.3685  -2.1556   1.6595   4.4342   4.7284   5.9273
     7.2274   7.2605   7.6581   7.7542   8.6199

          k = 0.2000 0.4000 0.0000 (  5882 PWs)   bands (ev):

   -17.2287 -13.6349 -13.4881 -13.3255 -13.2961 -13.2942  -8.5401  -7.0860
    -3.7180  -2.3751  -2.2869  -2.1515   0.0868   3.8519   5.1331   6.4628
     6.9845   7.1695   7.3983   8.5233   8.8198

          k = 0.4000 0.0000 0.2000 (  5882 PWs)   bands (ev):

   -17.2294 -13.5580 -13.4793 -13.3318 -13.2941 -13.2897  -8.2079  -7.7165
    -4.1091  -2.3557  -2.3321  -2.2144   1.2291   4.5233   5.1271   6.1991
     7.1973   7.4632   7.5234   7.8460   8.4482

          k = 0.4000 0.0000 0.4000 (  5912 PWs)   bands (ev):

   -17.2192 -13.4869 -13.4602 -13.3348 -13.2939 -13.2938  -8.0590  -7.8612
    -4.5164  -2.4145  -2.3720  -2.3057   0.7819   4.7671   5.9701   6.7147
     7.0130   7.1294   7.9236   7.9995   8.3977

          k = 0.2000 0.4000 0.2000 (  5873 PWs)   bands (ev):

   -17.2228 -13.5926 -13.4769 -13.3281 -13.2969 -13.2956  -8.4403  -7.2489
    -3.7791  -2.4193  -2.3929  -2.0761  -0.5943   4.7604   5.5455   6.4935
     6.9755   7.1124   7.5152   8.5205   8.9463

          k = 0.4000 0.2000 0.4000 (  5896 PWs)   bands (ev):

   -17.2135 -13.4646 -13.4601 -13.3355 -13.2966 -13.2964  -8.0366  -7.8437
    -4.3238  -2.4607  -2.4480  -2.3754  -0.3953   6.1030   6.1947   6.7459
     7.0064   7.0988   8.0001   8.3661   8.6499

     highest occupied level (ev):     9.1368

!    total energy              =   -1454.12950486 Ry
     total all-electron energy =    -59743.673196 Ry
     estimated scf accuracy    <       0.00000009 Ry

     The total energy is the sum of the following terms:
     one-electron contribution =     -76.86849438 Ry
     hartree contribution      =      68.48095246 Ry
     xc contribution           =     -73.37724634 Ry
     ewald contribution        =    -213.66240506 Ry
     one-center paw contrib.   =   -1158.70231154 Ry

     convergence has been achieved in  28 iterations

     Forces acting on atoms (cartesian axes, Ry/au):

     atom    1 type  1   force =     0.00000000    0.00000000    0.00000000
     atom    2 type  2   force =     0.00000000    0.00000000    0.00000000
     atom    3 type  4   force =     0.00000000    0.00000000    0.00000000
     atom    4 type  4   force =     0.00000000    0.00000000    0.00000000
     atom    5 type  3   force =     0.00000000    0.00000000    0.00000000

     Total force =     0.000000     Total SCF correction =     0.000000


     Computing stress (Cartesian axis) and pressure

          total   stress  (Ry/bohr**3)                   (kbar)     P=      -34.85
  -0.00021839   0.00000000   0.00000000          -32.13        0.00        0.00
   0.00000000  -0.00027388   0.00000000            0.00      -40.29        0.00
   0.00000000   0.00000000  -0.00021839            0.00        0.00      -32.13


     init_run     :      4.97s CPU      5.83s WALL (       1 calls)
     electrons    :    212.89s CPU    270.13s WALL (       1 calls)
     forces       :      2.13s CPU      2.36s WALL (       1 calls)
     stress       :     12.27s CPU     13.21s WALL (       1 calls)

     Called by init_run:
     wfcinit      :      1.86s CPU      2.06s WALL (       1 calls)
     potinit      :      0.90s CPU      1.03s WALL (       1 calls)
     hinit0       :      1.52s CPU      1.81s WALL (       1 calls)

     Called by electrons:
     c_bands      :    134.38s CPU    166.24s WALL (      28 calls)
     sum_band     :     41.68s CPU     55.44s WALL (      28 calls)
     v_of_rho     :      3.92s CPU      4.55s WALL (      29 calls)
     newd         :     17.29s CPU     25.74s WALL (      29 calls)
     PAW_pot      :     15.73s CPU     18.40s WALL (      29 calls)
     mix_rho      :      0.70s CPU      0.81s WALL (      28 calls)

     Called by c_bands:
     init_us_2    :      3.07s CPU      3.76s WALL (    1062 calls)
     init_us_2:cp :      3.06s CPU      3.74s WALL (    1062 calls)
     cegterg      :    127.31s CPU    157.63s WALL (     504 calls)

     Called by *egterg:
     cdiaghg      :      2.54s CPU      3.19s WALL (    2944 calls)
     h_psi        :    102.70s CPU    127.06s WALL (    2962 calls)
     s_psi        :      4.66s CPU      5.77s WALL (    2962 calls)
     g_psi        :      0.50s CPU      0.61s WALL (    2440 calls)

     Called by h_psi:
     h_psi:calbec :      6.18s CPU      7.72s WALL (    2962 calls)
     vloc_psi     :     90.98s CPU    112.47s WALL (    2962 calls)
     add_vuspsi   :      5.07s CPU      6.30s WALL (    2962 calls)

     General routines
     calbec       :      9.16s CPU     11.08s WALL (    3556 calls)
     fft          :      3.02s CPU      3.40s WALL (     400 calls)
     ffts         :      0.25s CPU      0.28s WALL (      57 calls)
     fftw         :     98.52s CPU    121.50s WALL (   71126 calls)
     interpolate  :      0.37s CPU      0.41s WALL (      29 calls)

     Parallel routines

     PWSCF        :   3m53.35s CPU   4m52.87s WALL


   This run was terminated on:   8:16:40   6May2024            

=------------------------------------------------------------------------------=
   JOB DONE.
=------------------------------------------------------------------------------=
