
     Program PWSCF v.7.1 starts on  6May2024 at  6:51: 9 

     This program is part of the open-source Quantum ESPRESSO suite
     for quantum simulation of materials; please cite
         "P. Giannozzi et al., J. Phys.:Condens. Matter 21 395502 (2009);
         "P. Giannozzi et al., J. Phys.:Condens. Matter 29 465901 (2017);
         "P. Giannozzi et al., J. Chem. Phys. 152 154105 (2020);
          URL http://www.quantum-espresso.org", 
     in publications or presentations arising from this work. More details at
     http://www.quantum-espresso.org/quote

     Parallel version (MPI), running on     2 processors

     MPI processes distributed on     1 nodes
     13498 MiB available memory on the printing compute node when the environment starts

     Waiting for input...
     Reading input from standard input
Warning: card &CELL ignored
Warning: card / ignored

     Current dimensions of program PWSCF are:
     Max number of different atomic species (ntypx) = 10
     Max number of k-points (npk) =  40000
     Max angular momentum in pseudopotentials (lmaxx) =  4
     file Ba.pbe-spn-kjpaw_psl.1.0.0.UPF: wavefunction(s)  5S 6S renormalized
     file Bi.pbe-dn-kjpaw_psl.1.0.0.UPF: wavefunction(s)  6P 5D renormalized
     file N.pbe-n-kjpaw_psl.1.0.0.UPF: wavefunction(s)  2S renormalized
     file O.pbe-n-kjpaw_psl.1.0.0.UPF: wavefunction(s)  2S 2P renormalized
     Message from routine setup:
     using ibrav=0 with symmetry is DISCOURAGED, use correct ibrav instead

     R & G space division:  proc/nbgrp/npool/nimage =       2
     Subspace diagonalization in iterative solution of the eigenvalue problem:
     a serial algorithm will be used


     Parallelization info
     --------------------
     sticks:   dense  smooth     PW     G-vecs:    dense   smooth      PW
     Min        1478     740    210                60356    21464    3224
     Max        1479     741    211                60357    21467    3227
     Sum        2957    1481    421               120713    42931    6451

     Using Slab Decomposition



     bravais-lattice index     =            0
     lattice parameter (alat)  =       8.1447  a.u.
     unit-cell volume          =     540.2918 (a.u.)^3
     number of atoms/cell      =            5
     number of atomic types    =            4
     number of electrons       =        42.00
     number of Kohn-Sham states=           21
     kinetic-energy cutoff     =      70.0000  Ry
     charge density cutoff     =     560.0000  Ry
     scf convergence threshold =      1.0E-07
     mixing beta               =       0.7000
     number of iterations used =            8  plain     mixing
     Exchange-correlation= SLA  PW   PBX  PBC
                           (   1   4   3   4   0   0   0)

     celldm(1)=   8.144720  celldm(2)=   0.000000  celldm(3)=   0.000000
     celldm(4)=   0.000000  celldm(5)=   0.000000  celldm(6)=   0.000000

     crystal axes: (cart. coord. in units of alat)
               a(1) = (   1.000000   0.000000   0.000000 )  
               a(2) = (   0.000000   1.000000   0.000000 )  
               a(3) = (   0.000000   0.000000   1.000000 )  

     reciprocal axes: (cart. coord. in units 2 pi/alat)
               b(1) = (  1.000000  0.000000  0.000000 )  
               b(2) = (  0.000000  1.000000  0.000000 )  
               b(3) = (  0.000000  0.000000  1.000000 )  


     PseudoPot. # 1 for Ba read from file:
     /home/bond/Software/qe-7.1/pseudo/Ba.pbe-spn-kjpaw_psl.1.0.0.UPF
     MD5 check sum: 7cfe25f1fe7574a4710541d5a11d6531
     Pseudo is Projector augmented-wave + core cor, Zval = 10.0
     Generated using &quot;atomic&quot; code by A. Dal Corso  v.6.2.2
     Shape of augmentation charge: PSQ
     Using radial grid of 1251 points,  7 beta functions with: 
                l(1) =   0
                l(2) =   0
                l(3) =   0
                l(4) =   1
                l(5) =   1
                l(6) =   2
                l(7) =   2
     Q(r) pseudized with 0 coefficients 


     PseudoPot. # 2 for Bi read from file:
     /home/bond/Software/qe-7.1/pseudo/Bi.pbe-dn-kjpaw_psl.1.0.0.UPF
     MD5 check sum: 266ded784ae3bc462508ed03f0f37963
     Pseudo is Projector augmented-wave + core cor, Zval = 15.0
     Generated using &quot;atomic&quot; code by A. Dal Corso  v.6.2.2
     Shape of augmentation charge: PSQ
     Using radial grid of 1283 points,  6 beta functions with: 
                l(1) =   0
                l(2) =   0
                l(3) =   1
                l(4) =   1
                l(5) =   2
                l(6) =   2
     Q(r) pseudized with 0 coefficients 


     PseudoPot. # 3 for N  read from file:
     /home/bond/Software/qe-7.1/pseudo/N.pbe-n-kjpaw_psl.1.0.0.UPF
     MD5 check sum: 14c48229446f9f2d411169a3abcbc3fa
     Pseudo is Projector augmented-wave + core cor, Zval =  5.0
     Generated using &quot;atomic&quot; code by A. Dal Corso  v.6.3
     Shape of augmentation charge: PSQ
     Using radial grid of 1085 points,  4 beta functions with: 
                l(1) =   0
                l(2) =   0
                l(3) =   1
                l(4) =   1
     Q(r) pseudized with 0 coefficients 


     PseudoPot. # 4 for O  read from file:
     /home/bond/Software/qe-7.1/pseudo/O.pbe-n-kjpaw_psl.1.0.0.UPF
     MD5 check sum: e99d9cef9b487d1ca56f5b95ecd0fd7a
     Pseudo is Projector augmented-wave + core cor, Zval =  6.0
     Generated using &quot;atomic&quot; code by A. Dal Corso  v.6.3
     Shape of augmentation charge: PSQ
     Using radial grid of 1095 points,  4 beta functions with: 
                l(1) =   0
                l(2) =   0
                l(3) =   1
                l(4) =   1
     Q(r) pseudized with 0 coefficients 


     atomic species   valence    mass     pseudopotential
        Ba            10.00   137.32700     Ba( 1.00)
        Bi            15.00   208.98040     Bi( 1.00)
        N              5.00    14.00700     N ( 1.00)
        O              6.00    15.99900     O ( 1.00)

     16 Sym. Ops., with inversion, found



   Cartesian axes

     site n.     atom                  positions (alat units)
         1           Ba  tau(   1) = (   0.5000000   0.5000000   0.5000000  )
         2           Bi  tau(   2) = (   0.0000000   0.0000000   0.0000000  )
         3           O   tau(   3) = (   0.0000000   0.0000000   0.5000000  )
         4           O   tau(   4) = (   0.5000000   0.0000000   0.0000000  )
         5           N   tau(   5) = (   0.0000000   0.5000000   0.0000000  )

     number of k points=    18
                       cart. coord. in units 2pi/alat
        k(    1) = (   0.0000000   0.0000000   0.0000000), wk =   0.0160000
        k(    2) = (   0.0000000   0.0000000   0.2000000), wk =   0.0640000
        k(    3) = (   0.0000000   0.0000000   0.4000000), wk =   0.0640000
        k(    4) = (   0.0000000   0.2000000   0.2000000), wk =   0.1280000
        k(    5) = (   0.0000000   0.2000000   0.4000000), wk =   0.1280000
        k(    6) = (   0.0000000   0.4000000   0.4000000), wk =   0.1280000
        k(    7) = (   0.2000000   0.2000000   0.2000000), wk =   0.1280000
        k(    8) = (   0.2000000   0.2000000   0.4000000), wk =   0.2560000
        k(    9) = (   0.2000000   0.4000000   0.4000000), wk =   0.2560000
        k(   10) = (   0.4000000   0.4000000   0.4000000), wk =   0.1280000
        k(   11) = (   0.0000000   0.2000000   0.0000000), wk =   0.0320000
        k(   12) = (   0.0000000   0.4000000   0.0000000), wk =   0.0320000
        k(   13) = (   0.2000000   0.0000000   0.2000000), wk =   0.0640000
        k(   14) = (   0.2000000   0.4000000   0.0000000), wk =   0.1280000
        k(   15) = (   0.4000000   0.0000000   0.2000000), wk =   0.1280000
        k(   16) = (   0.4000000   0.0000000   0.4000000), wk =   0.0640000
        k(   17) = (   0.2000000   0.4000000   0.2000000), wk =   0.1280000
        k(   18) = (   0.4000000   0.2000000   0.4000000), wk =   0.1280000

     Dense  grid:   120713 G-vectors     FFT dimensions: (  64,  64,  64)

     Smooth grid:    42931 G-vectors     FFT dimensions: (  45,  45,  45)

     Estimated max dynamical RAM per process >     270.81 MB

     Estimated total dynamical RAM >     541.62 MB

     Initial potential from superposition of free atoms

     starting charge      41.9822, renormalised to      42.0000
     Starting wfcs are   26 randomized atomic wfcs
     Checking if some PAW data can be deallocated... 

     total cpu time spent up to now is        6.0 secs

     Self-consistent Calculation

     iteration #  1     ecut=    70.00 Ry     beta= 0.70
     Davidson diagonalization with overlap
     ethr =  1.00E-02,  avg # of iterations =  1.9

     total cpu time spent up to now is       11.5 secs

     total energy              =   -1453.12740943 Ry
     estimated scf accuracy    <       1.64025661 Ry

     iteration #  2     ecut=    70.00 Ry     beta= 0.70
     Davidson diagonalization with overlap
     ethr =  3.91E-03,  avg # of iterations =  5.8

     total cpu time spent up to now is       19.3 secs

     total energy              =   -1453.73519768 Ry
     estimated scf accuracy    <       2.48691333 Ry

     iteration #  3     ecut=    70.00 Ry     beta= 0.70
     Davidson diagonalization with overlap
     ethr =  3.91E-03,  avg # of iterations =  2.4

     total cpu time spent up to now is       25.0 secs

     total energy              =   -1453.89630208 Ry
     estimated scf accuracy    <       0.40472112 Ry

     iteration #  4     ecut=    70.00 Ry     beta= 0.70
     Davidson diagonalization with overlap
     ethr =  9.64E-04,  avg # of iterations =  5.5

     total cpu time spent up to now is       32.2 secs

     total energy              =   -1454.12744481 Ry
     estimated scf accuracy    <       0.05063771 Ry

     iteration #  5     ecut=    70.00 Ry     beta= 0.70
     Davidson diagonalization with overlap
     ethr =  1.21E-04,  avg # of iterations =  4.8

     total cpu time spent up to now is       38.8 secs

     total energy              =   -1454.12707722 Ry
     estimated scf accuracy    <       0.06792585 Ry

     iteration #  6     ecut=    70.00 Ry     beta= 0.70
     Davidson diagonalization with overlap
     ethr =  1.21E-04,  avg # of iterations =  1.6

     total cpu time spent up to now is       44.2 secs

     total energy              =   -1454.11653782 Ry
     estimated scf accuracy    <       0.03362752 Ry

     iteration #  7     ecut=    70.00 Ry     beta= 0.70
     Davidson diagonalization with overlap
     ethr =  8.01E-05,  avg # of iterations =  4.8

     total cpu time spent up to now is       51.0 secs

     total energy              =   -1454.12549198 Ry
     estimated scf accuracy    <       0.00180257 Ry

     iteration #  8     ecut=    70.00 Ry     beta= 0.70
     Davidson diagonalization with overlap
     ethr =  4.29E-06,  avg # of iterations =  7.6

     total cpu time spent up to now is       58.7 secs

     total energy              =   -1454.12850136 Ry
     estimated scf accuracy    <       0.00309353 Ry

     iteration #  9     ecut=    70.00 Ry     beta= 0.70
     Davidson diagonalization with overlap
     ethr =  4.29E-06,  avg # of iterations =  5.8

     total cpu time spent up to now is       66.1 secs

     total energy              =   -1454.12025367 Ry
     estimated scf accuracy    <       0.01171939 Ry

     iteration # 10     ecut=    70.00 Ry     beta= 0.70
     Davidson diagonalization with overlap
     c_bands:  1 eigenvalues not converged
     c_bands:  1 eigenvalues not converged
     c_bands:  1 eigenvalues not converged
     ethr =  4.29E-06,  avg # of iterations = 12.2

     total cpu time spent up to now is       77.4 secs

     total energy              =   -1454.13631974 Ry
     estimated scf accuracy    <       0.05273458 Ry

     iteration # 11     ecut=    70.00 Ry     beta= 0.70
     Davidson diagonalization with overlap
     ethr =  4.29E-06,  avg # of iterations =  2.0

     total cpu time spent up to now is       82.6 secs

     total energy              =   -1454.12113601 Ry
     estimated scf accuracy    <       0.04848860 Ry

     iteration # 12     ecut=    70.00 Ry     beta= 0.70
     Davidson diagonalization with overlap
     ethr =  4.29E-06,  avg # of iterations =  9.9

     total cpu time spent up to now is       91.9 secs

     total energy              =   -1454.12628203 Ry
     estimated scf accuracy    <       0.00116628 Ry

     iteration # 13     ecut=    70.00 Ry     beta= 0.70
     Davidson diagonalization with overlap
     c_bands:  1 eigenvalues not converged
     ethr =  2.78E-06,  avg # of iterations =  8.7

     total cpu time spent up to now is       99.9 secs

     total energy              =   -1454.12664289 Ry
     estimated scf accuracy    <       0.00276524 Ry

     iteration # 14     ecut=    70.00 Ry     beta= 0.70
     Davidson diagonalization with overlap
     ethr =  2.78E-06,  avg # of iterations =  5.4

     total cpu time spent up to now is      106.8 secs

     total energy              =   -1454.12713252 Ry
     estimated scf accuracy    <       0.00015696 Ry

     iteration # 15     ecut=    70.00 Ry     beta= 0.70
     Davidson diagonalization with overlap
     ethr =  3.74E-07,  avg # of iterations =  7.8

     total cpu time spent up to now is      114.7 secs

     total energy              =   -1454.12720009 Ry
     estimated scf accuracy    <       0.00056287 Ry

     iteration # 16     ecut=    70.00 Ry     beta= 0.70
     Davidson diagonalization with overlap
     ethr =  3.74E-07,  avg # of iterations =  1.5

     total cpu time spent up to now is      119.9 secs

     total energy              =   -1454.12705370 Ry
     estimated scf accuracy    <       0.00040020 Ry

     iteration # 17     ecut=    70.00 Ry     beta= 0.70
     Davidson diagonalization with overlap
     ethr =  3.74E-07,  avg # of iterations =  5.1

     total cpu time spent up to now is      127.1 secs

     total energy              =   -1454.12714709 Ry
     estimated scf accuracy    <       0.00000642 Ry

     iteration # 18     ecut=    70.00 Ry     beta= 0.70
     Davidson diagonalization with overlap
     c_bands:  1 eigenvalues not converged
     ethr =  1.53E-08,  avg # of iterations = 10.2

     total cpu time spent up to now is      135.2 secs

     total energy              =   -1454.12716134 Ry
     estimated scf accuracy    <       0.00001743 Ry

     iteration # 19     ecut=    70.00 Ry     beta= 0.70
     Davidson diagonalization with overlap
     ethr =  1.53E-08,  avg # of iterations =  1.3

     total cpu time spent up to now is      141.5 secs

     total energy              =   -1454.12716362 Ry
     estimated scf accuracy    <       0.00001825 Ry

     iteration # 20     ecut=    70.00 Ry     beta= 0.70
     Davidson diagonalization with overlap
     ethr =  1.53E-08,  avg # of iterations =  1.9

     total cpu time spent up to now is      149.5 secs

     total energy              =   -1454.12715766 Ry
     estimated scf accuracy    <       0.00002471 Ry

     iteration # 21     ecut=    70.00 Ry     beta= 0.70
     Davidson diagonalization with overlap
     ethr =  1.53E-08,  avg # of iterations =  2.6

     total cpu time spent up to now is      157.8 secs

     total energy              =   -1454.12715575 Ry
     estimated scf accuracy    <       0.00001357 Ry

     iteration # 22     ecut=    70.00 Ry     beta= 0.70
     Davidson diagonalization with overlap
     ethr =  1.53E-08,  avg # of iterations =  3.2

     total cpu time spent up to now is      166.8 secs

     total energy              =   -1454.12715625 Ry
     estimated scf accuracy    <       0.00000553 Ry

     iteration # 23     ecut=    70.00 Ry     beta= 0.70
     Davidson diagonalization with overlap
     ethr =  1.32E-08,  avg # of iterations =  2.4

     total cpu time spent up to now is      175.6 secs

     total energy              =   -1454.12715596 Ry
     estimated scf accuracy    <       0.00000297 Ry

     iteration # 24     ecut=    70.00 Ry     beta= 0.70
     Davidson diagonalization with overlap
     ethr =  7.08E-09,  avg # of iterations =  5.8

     total cpu time spent up to now is      186.5 secs

     End of self-consistent calculation

          k = 0.0000 0.0000 0.0000 (  5377 PWs)   bands (ev):

   -15.6160 -12.6413 -12.4754 -12.1169 -12.0697 -12.0697  -7.9636  -5.6631
    -1.8977  -0.8590  -0.7797  -0.7797   4.5957   4.5957   5.3634   5.7310
     8.4430   8.5300   8.5300   9.2044  10.2811

          k = 0.0000 0.0000 0.2000 (  5334 PWs)   bands (ev):

   -15.6026 -12.5968 -12.4456 -12.1210 -12.0738 -12.0695  -7.8574  -5.9810
    -2.2658  -0.8158  -0.7358  -0.5428   3.7724   4.5933   5.3601   7.0874
     8.3691   8.4753   8.6170   9.0688   9.9991

          k = 0.0000 0.0000 0.4000 (  5354 PWs)   bands (ev):

   -15.5807 -12.5584 -12.3589 -12.1277 -12.0806 -12.0693  -7.4774  -6.7343
    -2.6090  -0.7435  -0.6624  -0.4100   3.4098   4.5801   5.3332   7.4003
     8.3883   8.3968   8.7541   8.9669   9.7395

          k = 0.0000 0.2000 0.2000 (  5325 PWs)   bands (ev):

   -15.5895 -12.5954 -12.4207 -12.1207 -12.0773 -12.0735  -7.8387  -5.9700
    -2.3843  -0.7742  -0.6974  -0.5270   2.4447   4.6026   6.0649   7.3573
     8.1444   8.3373   8.5955  10.0033  10.0732

          k = 0.0000 0.2000 0.4000 (  5336 PWs)   bands (ev):

   -15.5701 -12.5525 -12.3363 -12.1274 -12.0829 -12.0732  -7.4387  -6.7186
    -2.6759  -0.7928  -0.6363  -0.4264   1.9378   4.6537   6.9206   7.4448
     8.0122   8.2267   8.8052   9.6620   9.7040

          k = 0.0000 0.4000 0.4000 (  5340 PWs)   bands (ev):

   -15.5528 -12.5449 -12.2974 -12.1269 -12.0866 -12.0794  -7.3854  -6.6678
    -2.8230  -0.8762  -0.5931  -0.3391   0.6110   4.7772   7.3219   7.8917
     7.9729   8.1161   9.0429   9.5262  10.3400

          k = 0.2000 0.2000 0.2000 (  5344 PWs)   bands (ev):

   -15.5783 -12.5330 -12.4060 -12.1245 -12.0777 -12.0768  -7.7368  -6.1935
    -2.6127  -0.7927  -0.7756  -0.4647   1.7504   5.6742   6.3033   7.2637
     8.1119   8.3386   8.6947   9.8111  10.2466

          k = 0.2000 0.2000 0.4000 (  5341 PWs)   bands (ev):

   -15.5601 -12.4723 -12.3360 -12.1306 -12.0833 -12.0773  -7.3872  -6.7793
    -2.9067  -0.8393  -0.7451  -0.6101   1.3416   6.0273   7.0850   7.2873
     8.0583   8.4290   8.7620   9.6697   9.9752

          k = 0.2000 0.4000 0.4000 (  5361 PWs)   bands (ev):

   -15.5434 -12.4645 -12.2963 -12.1313 -12.0884 -12.0836  -7.3316  -6.7353
    -2.7627  -0.9546  -0.7813  -0.6345  -0.1054   6.1739   7.5119   7.8259
     8.1173   8.4304   9.0060   9.9115  10.4381

          k = 0.4000 0.4000 0.4000 (  5358 PWs)   bands (ev):

   -15.5281 -12.3352 -12.2862 -12.1383 -12.0913 -12.0902  -7.1703  -6.9318
    -2.7312  -1.2025  -1.0600  -0.9898  -0.7089   7.6562   7.9683   8.0841
     8.1650   9.0854   9.1542  10.4154  10.5987

          k = 0.0000 0.2000 0.0000 (  5334 PWs)   bands (ev):

   -15.6014 -12.6407 -12.4509 -12.1166 -12.0737 -12.0737  -7.9544  -5.6580
    -2.0896  -0.7609  -0.7342  -0.7342   3.4664   4.5685   4.5685   7.4346
     8.2445   8.4086   8.4086   9.9922  10.2527

          k = 0.0000 0.4000 0.0000 (  5354 PWs)   bands (ev):

   -15.5775 -12.6400 -12.4116 -12.1164 -12.0802 -12.0802  -7.9356  -5.6499
    -2.3451  -0.7042  -0.6579  -0.6579   2.4056   4.5130   4.5130   7.5839
     7.9619   8.2446   8.2446  10.2073  10.2073

          k = 0.2000 0.0000 0.2000 (  5325 PWs)   bands (ev):

   -15.5903 -12.5335 -12.4326 -12.1245 -12.0737 -12.0735  -7.7620  -6.2077
    -2.5830  -0.7791  -0.7689  -0.4911   3.0071   5.4128   5.6766   7.2215
     8.2607   8.4720   8.7089   8.9118  10.0794

          k = 0.2000 0.4000 0.0000 (  5336 PWs)   bands (ev):

   -15.5681 -12.5936 -12.3801 -12.1204 -12.0827 -12.0799  -7.8051  -5.9497
    -2.5559  -0.7726  -0.6334  -0.4946   1.3584   4.6091   6.1907   7.5140
     7.9875   8.1462   8.4570   9.9234  10.2400

          k = 0.4000 0.0000 0.2000 (  5336 PWs)   bands (ev):

   -15.5703 -12.4794 -12.3580 -12.1301 -12.0802 -12.0733  -7.4237  -6.7990
    -2.9706  -0.7338  -0.7183  -0.5840   2.6865   5.4863   6.1736   7.1591
     8.2182   8.5568   8.6720   9.0768   9.8270

          k = 0.4000 0.0000 0.4000 (  5340 PWs)   bands (ev):

   -15.5535 -12.3658 -12.3357 -12.1341 -12.0798 -12.0797  -7.2496  -6.9930
    -3.5729  -0.8076  -0.7639  -0.6768   2.2637   5.7813   6.8697   7.8962
     7.9970   8.1537   9.0953   9.3344   9.8347

          k = 0.2000 0.4000 0.2000 (  5341 PWs)   bands (ev):

   -15.5587 -12.5323 -12.3626 -12.1245 -12.0845 -12.0817  -7.6921  -6.1703
    -2.6319  -0.8423  -0.7872  -0.4032   0.5171   5.6657   6.6806   7.5491
     8.0147   8.1867   8.5446   9.8730  10.4004

          k = 0.4000 0.2000 0.4000 (  5361 PWs)   bands (ev):

   -15.5438 -12.3356 -12.3355 -12.1357 -12.0841 -12.0838  -7.2199  -6.9699
    -3.3601  -0.8942  -0.8777  -0.7809   0.8415   7.1496   7.3131   7.9252
     8.0545   8.2448   9.1010   9.7586  10.0823

     highest occupied level (ev):    10.5987

!    total energy              =   -1454.12715704 Ry
     total all-electron energy =    -59743.670848 Ry
     estimated scf accuracy    <       0.00000005 Ry

     The total energy is the sum of the following terms:
     one-electron contribution =     -66.54273249 Ry
     hartree contribution      =      65.40282129 Ry
     xc contribution           =     -73.66733881 Ry
     ewald contribution        =    -220.60271520 Ry
     one-center paw contrib.   =   -1158.71719184 Ry

     convergence has been achieved in  24 iterations

     Forces acting on atoms (cartesian axes, Ry/au):

     atom    1 type  1   force =     0.00000000    0.00000000    0.00000000
     atom    2 type  2   force =     0.00000000    0.00000000    0.00000000
     atom    3 type  4   force =     0.00000000    0.00000000    0.00000000
     atom    4 type  4   force =     0.00000000    0.00000000    0.00000000
     atom    5 type  3   force =     0.00000000    0.00000000    0.00000000

     Total force =     0.000000     Total SCF correction =     0.000000


     Computing stress (Cartesian axis) and pressure

          total   stress  (Ry/bohr**3)                   (kbar)     P=       44.44
   0.00038610   0.00000000   0.00000000           56.80        0.00        0.00
   0.00000000   0.00013418   0.00000000            0.00       19.74        0.00
   0.00000000   0.00000000   0.00038610            0.00        0.00       56.80


     init_run     :      4.52s CPU      4.87s WALL (       1 calls)
     electrons    :    156.33s CPU    180.53s WALL (       1 calls)
     forces       :      1.59s CPU      2.43s WALL (       1 calls)
     stress       :     11.15s CPU     12.06s WALL (       1 calls)

     Called by init_run:
     wfcinit      :      1.57s CPU      1.61s WALL (       1 calls)
     potinit      :      0.86s CPU      0.89s WALL (       1 calls)
     hinit0       :      1.54s CPU      1.58s WALL (       1 calls)

     Called by electrons:
     c_bands      :    101.08s CPU    109.27s WALL (      24 calls)
     sum_band     :     28.29s CPU     36.65s WALL (      24 calls)
     v_of_rho     :      2.70s CPU      3.10s WALL (      25 calls)
     newd         :     11.45s CPU     17.30s WALL (      25 calls)
     PAW_pot      :     13.18s CPU     14.72s WALL (      25 calls)
     mix_rho      :      0.48s CPU      0.54s WALL (      24 calls)

     Called by c_bands:
     init_us_2    :      2.39s CPU      2.60s WALL (     918 calls)
     init_us_2:cp :      2.38s CPU      2.59s WALL (     918 calls)
     cegterg      :     96.05s CPU    103.77s WALL (     432 calls)

     Called by *egterg:
     cdiaghg      :      2.29s CPU      2.44s WALL (    2596 calls)
     h_psi        :     77.95s CPU     84.14s WALL (    2614 calls)
     s_psi        :      3.67s CPU      4.01s WALL (    2614 calls)
     g_psi        :      0.43s CPU      0.46s WALL (    2164 calls)

     Called by h_psi:
     h_psi:calbec :      4.45s CPU      4.78s WALL (    2614 calls)
     vloc_psi     :     69.03s CPU     74.59s WALL (    2614 calls)
     add_vuspsi   :      4.04s CPU      4.33s WALL (    2614 calls)

     General routines
     calbec       :      6.67s CPU      7.31s WALL (    3136 calls)
     fft          :      1.81s CPU      1.97s WALL (     348 calls)
     ffts         :      0.18s CPU      0.19s WALL (      49 calls)
     fftw         :     72.55s CPU     78.51s WALL (   64452 calls)
     interpolate  :      0.26s CPU      0.28s WALL (      25 calls)

     Parallel routines

     PWSCF        :   2m54.68s CPU   3m21.03s WALL


   This run was terminated on:   6:54:30   6May2024            

=------------------------------------------------------------------------------=
   JOB DONE.
=------------------------------------------------------------------------------=
