
     Program PWSCF v.7.1 starts on  6May2024 at  2:32:56 

     This program is part of the open-source Quantum ESPRESSO suite
     for quantum simulation of materials; please cite
         "P. Giannozzi et al., J. Phys.:Condens. Matter 21 395502 (2009);
         "P. Giannozzi et al., J. Phys.:Condens. Matter 29 465901 (2017);
         "P. Giannozzi et al., J. Chem. Phys. 152 154105 (2020);
          URL http://www.quantum-espresso.org", 
     in publications or presentations arising from this work. More details at
     http://www.quantum-espresso.org/quote

     Parallel version (MPI), running on     2 processors

     MPI processes distributed on     1 nodes
     13806 MiB available memory on the printing compute node when the environment starts

     Waiting for input...
     Reading input from standard input
Warning: card &CELL ignored
Warning: card / ignored

     Current dimensions of program PWSCF are:
     Max number of different atomic species (ntypx) = 10
     Max number of k-points (npk) =  40000
     Max angular momentum in pseudopotentials (lmaxx) =  4
     file Ba.pbe-spn-kjpaw_psl.1.0.0.UPF: wavefunction(s)  5S 6S renormalized
     file Bi.pbe-dn-kjpaw_psl.1.0.0.UPF: wavefunction(s)  6P 5D renormalized
     file O.pbe-n-kjpaw_psl.1.0.0.UPF: wavefunction(s)  2S 2P renormalized
     Message from routine setup:
     using ibrav=0 with symmetry is DISCOURAGED, use correct ibrav instead

     R & G space division:  proc/nbgrp/npool/nimage =       2
     Subspace diagonalization in iterative solution of the eigenvalue problem:
     a serial algorithm will be used


     Parallelization info
     --------------------
     sticks:   dense  smooth     PW     G-vecs:    dense   smooth      PW
     Min        1489     740    210                61232    21692    3308
     Max        1492     741    211                61233    21695    3311
     Sum        2981    1481    421               122465    43387    6619

     Using Slab Decomposition



     bravais-lattice index     =            0
     lattice parameter (alat)  =       8.1825  a.u.
     unit-cell volume          =     547.8483 (a.u.)^3
     number of atoms/cell      =            5
     number of atomic types    =            3
     number of electrons       =        43.00
     number of Kohn-Sham states=           26
     kinetic-energy cutoff     =      70.0000  Ry
     charge density cutoff     =     560.0000  Ry
     scf convergence threshold =      1.0E-07
     mixing beta               =       0.7000
     number of iterations used =            8  plain     mixing
     Exchange-correlation= SLA  PW   PBX  PBC
                           (   1   4   3   4   0   0   0)

     celldm(1)=   8.182514  celldm(2)=   0.000000  celldm(3)=   0.000000
     celldm(4)=   0.000000  celldm(5)=   0.000000  celldm(6)=   0.000000

     crystal axes: (cart. coord. in units of alat)
               a(1) = (   1.000000   0.000000   0.000000 )  
               a(2) = (   0.000000   1.000000   0.000000 )  
               a(3) = (   0.000000   0.000000   1.000000 )  

     reciprocal axes: (cart. coord. in units 2 pi/alat)
               b(1) = (  1.000000  0.000000  0.000000 )  
               b(2) = (  0.000000  1.000000  0.000000 )  
               b(3) = (  0.000000  0.000000  1.000000 )  


     PseudoPot. # 1 for Ba read from file:
     /home/bond/Software/qe-7.1/pseudo/Ba.pbe-spn-kjpaw_psl.1.0.0.UPF
     MD5 check sum: 7cfe25f1fe7574a4710541d5a11d6531
     Pseudo is Projector augmented-wave + core cor, Zval = 10.0
     Generated using &quot;atomic&quot; code by A. Dal Corso  v.6.2.2
     Shape of augmentation charge: PSQ
     Using radial grid of 1251 points,  7 beta functions with: 
                l(1) =   0
                l(2) =   0
                l(3) =   0
                l(4) =   1
                l(5) =   1
                l(6) =   2
                l(7) =   2
     Q(r) pseudized with 0 coefficients 


     PseudoPot. # 2 for Bi read from file:
     /home/bond/Software/qe-7.1/pseudo/Bi.pbe-dn-kjpaw_psl.1.0.0.UPF
     MD5 check sum: 266ded784ae3bc462508ed03f0f37963
     Pseudo is Projector augmented-wave + core cor, Zval = 15.0
     Generated using &quot;atomic&quot; code by A. Dal Corso  v.6.2.2
     Shape of augmentation charge: PSQ
     Using radial grid of 1283 points,  6 beta functions with: 
                l(1) =   0
                l(2) =   0
                l(3) =   1
                l(4) =   1
                l(5) =   2
                l(6) =   2
     Q(r) pseudized with 0 coefficients 


     PseudoPot. # 3 for O  read from file:
     /home/bond/Software/qe-7.1/pseudo/O.pbe-n-kjpaw_psl.1.0.0.UPF
     MD5 check sum: e99d9cef9b487d1ca56f5b95ecd0fd7a
     Pseudo is Projector augmented-wave + core cor, Zval =  6.0
     Generated using &quot;atomic&quot; code by A. Dal Corso  v.6.3
     Shape of augmentation charge: PSQ
     Using radial grid of 1095 points,  4 beta functions with: 
                l(1) =   0
                l(2) =   0
                l(3) =   1
                l(4) =   1
     Q(r) pseudized with 0 coefficients 


     atomic species   valence    mass     pseudopotential
        Ba            10.00   137.32700     Ba( 1.00)
        Bi            15.00   208.98040     Bi( 1.00)
        O              6.00    15.99900     O ( 1.00)

     48 Sym. Ops., with inversion, found



   Cartesian axes

     site n.     atom                  positions (alat units)
         1           Ba  tau(   1) = (   0.5000000   0.5000000   0.5000000  )
         2           Bi  tau(   2) = (   0.0000000   0.0000000   0.0000000  )
         3           O   tau(   3) = (   0.0000000   0.0000000   0.5000000  )
         4           O   tau(   4) = (   0.5000000   0.0000000   0.0000000  )
         5           O   tau(   5) = (   0.0000000   0.5000000   0.0000000  )

     number of k points=    10  Methfessel-Paxton smearing, width (Ry)=  0.0200
                       cart. coord. in units 2pi/alat
        k(    1) = (   0.0000000   0.0000000   0.0000000), wk =   0.0160000
        k(    2) = (   0.0000000   0.0000000   0.2000000), wk =   0.0960000
        k(    3) = (   0.0000000   0.0000000   0.4000000), wk =   0.0960000
        k(    4) = (   0.0000000   0.2000000   0.2000000), wk =   0.1920000
        k(    5) = (   0.0000000   0.2000000   0.4000000), wk =   0.3840000
        k(    6) = (   0.0000000   0.4000000   0.4000000), wk =   0.1920000
        k(    7) = (   0.2000000   0.2000000   0.2000000), wk =   0.1280000
        k(    8) = (   0.2000000   0.2000000   0.4000000), wk =   0.3840000
        k(    9) = (   0.2000000   0.4000000   0.4000000), wk =   0.3840000
        k(   10) = (   0.4000000   0.4000000   0.4000000), wk =   0.1280000

     Dense  grid:   122465 G-vectors     FFT dimensions: (  64,  64,  64)

     Smooth grid:    43387 G-vectors     FFT dimensions: (  45,  45,  45)

     Estimated max dynamical RAM per process >     265.39 MB

     Estimated total dynamical RAM >     530.78 MB

     Initial potential from superposition of free atoms

     starting charge      42.9822, renormalised to      43.0000
     Starting wfcs are   26 randomized atomic wfcs
     Checking if some PAW data can be deallocated... 

     total cpu time spent up to now is        5.0 secs

     Self-consistent Calculation

     iteration #  1     ecut=    70.00 Ry     beta= 0.70
     Davidson diagonalization with overlap
     ethr =  1.00E-02,  avg # of iterations =  6.9

     total cpu time spent up to now is       10.1 secs

     total energy              =   -1466.70707983 Ry
     estimated scf accuracy    <       1.67541224 Ry

     iteration #  2     ecut=    70.00 Ry     beta= 0.70
     Davidson diagonalization with overlap
     ethr =  3.90E-03,  avg # of iterations =  6.6

     total cpu time spent up to now is       16.0 secs

     total energy              =   -1467.18012004 Ry
     estimated scf accuracy    <       3.38932328 Ry

     iteration #  3     ecut=    70.00 Ry     beta= 0.70
     Davidson diagonalization with overlap
     ethr =  3.90E-03,  avg # of iterations =  2.6

     total cpu time spent up to now is       20.7 secs

     total energy              =   -1467.41644586 Ry
     estimated scf accuracy    <       0.37313673 Ry

     iteration #  4     ecut=    70.00 Ry     beta= 0.70
     Davidson diagonalization with overlap
     ethr =  8.68E-04,  avg # of iterations =  6.1

     total cpu time spent up to now is       26.5 secs

     total energy              =   -1467.75974262 Ry
     estimated scf accuracy    <       0.19544723 Ry

     iteration #  5     ecut=    70.00 Ry     beta= 0.70
     Davidson diagonalization with overlap
     ethr =  4.55E-04,  avg # of iterations =  1.6

     total cpu time spent up to now is       31.0 secs

     total energy              =   -1467.73028011 Ry
     estimated scf accuracy    <       0.07971793 Ry

     iteration #  6     ecut=    70.00 Ry     beta= 0.70
     Davidson diagonalization with overlap
     c_bands:  1 eigenvalues not converged
     ethr =  1.85E-04,  avg # of iterations =  9.1

     total cpu time spent up to now is       39.1 secs

     total energy              =   -1467.75309182 Ry
     estimated scf accuracy    <       0.00018313 Ry

     iteration #  7     ecut=    70.00 Ry     beta= 0.70
     Davidson diagonalization with overlap
     c_bands:  1 eigenvalues not converged
     c_bands:  1 eigenvalues not converged
     c_bands:  1 eigenvalues not converged
     c_bands:  2 eigenvalues not converged
     c_bands:  1 eigenvalues not converged
     ethr =  4.26E-07,  avg # of iterations = 16.8

     total cpu time spent up to now is       53.3 secs

     total energy              =   -1467.75792886 Ry
     estimated scf accuracy    <       0.00697917 Ry

     iteration #  8     ecut=    70.00 Ry     beta= 0.70
     Davidson diagonalization with overlap
     ethr =  4.26E-07,  avg # of iterations =  6.4

     total cpu time spent up to now is       60.3 secs

     total energy              =   -1467.75568846 Ry
     estimated scf accuracy    <       0.00512376 Ry

     iteration #  9     ecut=    70.00 Ry     beta= 0.70
     Davidson diagonalization with overlap
     ethr =  4.26E-07,  avg # of iterations =  6.9

     total cpu time spent up to now is       69.9 secs

     total energy              =   -1467.75680276 Ry
     estimated scf accuracy    <       0.00002234 Ry

     iteration # 10     ecut=    70.00 Ry     beta= 0.70
     Davidson diagonalization with overlap
     ethr =  5.20E-08,  avg # of iterations =  5.3

     total cpu time spent up to now is       76.9 secs

     total energy              =   -1467.75680036 Ry
     estimated scf accuracy    <       0.00002212 Ry

     iteration # 11     ecut=    70.00 Ry     beta= 0.70
     Davidson diagonalization with overlap
     ethr =  5.14E-08,  avg # of iterations =  2.0

     total cpu time spent up to now is       82.9 secs

     total energy              =   -1467.75680024 Ry
     estimated scf accuracy    <       0.00000316 Ry

     iteration # 12     ecut=    70.00 Ry     beta= 0.70
     Davidson diagonalization with overlap
     ethr =  7.36E-09,  avg # of iterations =  5.4

     total cpu time spent up to now is       91.0 secs

     total energy              =   -1467.75680199 Ry
     estimated scf accuracy    <       0.00000862 Ry

     iteration # 13     ecut=    70.00 Ry     beta= 0.70
     Davidson diagonalization with overlap
     ethr =  7.36E-09,  avg # of iterations =  4.4

     total cpu time spent up to now is       99.2 secs

     End of self-consistent calculation

          k = 0.0000 0.0000 0.0000 (  5449 PWs)   bands (ev):

   -16.2145 -12.2232 -12.2232 -11.6985 -11.6985 -11.6985  -8.3148  -5.5688
    -5.5688  -1.3568  -1.3568  -1.3568   4.7214   4.7214   4.7214   4.7600
     8.4322   8.4322   8.4322   8.7314   8.7314   8.7314  13.9500  13.9500
    15.3600  16.0243

          k = 0.0000 0.0000 0.2000 (  5438 PWs)   bands (ev):

   -16.2022 -12.2227 -12.1519 -11.7026 -11.7026 -11.6984  -8.2127  -5.9627
    -5.5636  -1.3195  -1.3195  -1.2902   3.0836   4.7169   4.7169   6.7014
     8.2189   8.3434   8.3434   8.6424   8.6424   8.9892  14.4571  14.4815
    16.0663  16.3999

          k = 0.0000 0.0000 0.4000 (  5402 PWs)   bands (ev):

   -16.1821 -12.2218 -12.0330 -11.7093 -11.7093 -11.6980  -7.8920  -6.7368
    -5.5553  -1.2574  -1.2574  -1.2145   2.3081   4.6980   4.6980   7.1767
     7.9195   8.2699   8.2699   8.4627   8.4627  10.6863  15.3116  15.3390
    16.3054  16.9494

          k = 0.0000 0.2000 0.2000 (  5413 PWs)   bands (ev):

   -16.1910 -12.1878 -12.1122 -11.7062 -11.7026 -11.7022  -8.1073  -6.1059
    -5.7735  -1.3473  -1.2878  -1.2384   2.0937   4.7503   5.7630   6.8658
     7.9243   8.2428   8.4595   8.5298   8.8420   9.2970  14.7785  15.0306
    16.1946  16.4893

          k = 0.0000 0.2000 0.4000 (  5416 PWs)   bands (ev):

   -16.1728 -12.1757 -11.9993 -11.7121 -11.7090 -11.7020  -7.7755  -6.7652
    -5.8416  -1.3215  -1.2522  -1.2354   1.3590   4.7978   6.1663   7.0836
     7.8311   8.1504   8.3051   8.4164   8.7848  10.9676  15.4932  15.8576
    16.5285  16.6414

          k = 0.0000 0.4000 0.4000 (  5398 PWs)   bands (ev):

   -16.1576 -12.1335 -11.9064 -11.7165 -11.7085 -11.7084  -7.4151  -6.8851
    -6.4210  -1.3823  -1.3477  -1.1993   0.5779   4.9733   6.8788   7.7345
     7.9437   7.9704   8.0414   8.5801   9.1361  12.0679  15.7267  16.1523
    16.2136  16.5966

          k = 0.2000 0.2000 0.2000 (  5410 PWs)   bands (ev):

   -16.1807 -12.1116 -12.1116 -11.7066 -11.7066 -11.7055  -8.0030  -6.0903
    -6.0903  -1.3573  -1.3573  -1.1835   1.2641   5.7906   5.7906   6.9008
     7.9342   7.9342   8.7115   8.7663   8.7663   9.5830  15.1618  15.1618
    16.1256  16.5583

          k = 0.2000 0.2000 0.4000 (  5429 PWs)   bands (ev):

   -16.1638 -12.1108 -11.9831 -11.7136 -11.7112 -11.7062  -7.6723  -6.7720
    -6.0649  -1.3743  -1.3602  -1.2271   0.5340   5.8285   6.5326   7.1212
     7.7538   7.9965   8.5942   8.6116   8.8384  11.1733  15.4543  15.7086
    16.3239  16.4606

          k = 0.2000 0.4000 0.4000 (  5419 PWs)   bands (ev):

   -16.1492 -12.0497 -11.9062 -11.7180 -11.7130 -11.7125  -7.3507  -6.8596
    -6.5293  -1.4497  -1.4411  -1.3066  -0.2681   6.2797   7.1371   7.7163
     7.7639   8.0548   8.5686   8.7683   9.1505  12.1703  15.0853  15.1268
    15.6656  16.5705

          k = 0.4000 0.4000 0.4000 (  5445 PWs)   bands (ev):

   -16.1355 -11.9058 -11.9058 -11.7205 -11.7205 -11.7191  -7.1518  -6.8174
    -6.8174  -1.5584  -1.5584  -1.4970  -1.1850   7.5406   7.7482   7.7482
     8.1188   8.1188   9.0937   9.0937   9.2063  12.6959  14.0722  14.0722
    14.8251  17.5682

     the Fermi energy is    11.1167 ev

!    total energy              =   -1467.75680371 Ry
     total all-electron energy =    -59784.848586 Ry
     estimated scf accuracy    <       0.00000001 Ry
     smearing contrib. (-TS)   =      -0.00117875 Ry
     internal energy E=F+TS    =   -1467.75562496 Ry

     The total energy is F=E-TS. E is the sum of the following terms:
     one-electron contribution =     -76.64241079 Ry
     hartree contribution      =      71.58792319 Ry
     xc contribution           =     -75.49062602 Ry
     ewald contribution        =    -226.88215618 Ry
     one-center paw contrib.   =   -1160.32835516 Ry

     convergence has been achieved in  13 iterations

     Forces acting on atoms (cartesian axes, Ry/au):

     atom    1 type  1   force =     0.00000000    0.00000000    0.00000000
     atom    2 type  2   force =     0.00000000    0.00000000    0.00000000
     atom    3 type  3   force =     0.00000000    0.00000000    0.00000000
     atom    4 type  3   force =     0.00000000    0.00000000    0.00000000
     atom    5 type  3   force =     0.00000000    0.00000000    0.00000000

     Total force =     0.000000     Total SCF correction =     0.000000


     Computing stress (Cartesian axis) and pressure

          total   stress  (Ry/bohr**3)                   (kbar)     P=       79.12
   0.00053785   0.00000000   0.00000000           79.12        0.00        0.00
   0.00000000   0.00053785   0.00000000            0.00       79.12        0.00
   0.00000000   0.00000000   0.00053785            0.00        0.00       79.12


     init_run     :      3.79s CPU      4.06s WALL (       1 calls)
     electrons    :     78.64s CPU     94.16s WALL (       1 calls)
     forces       :      1.09s CPU      2.04s WALL (       1 calls)
     stress       :      9.06s CPU     10.20s WALL (       1 calls)

     Called by init_run:
     wfcinit      :      0.93s CPU      0.95s WALL (       1 calls)
     potinit      :      0.81s CPU      0.84s WALL (       1 calls)
     hinit0       :      1.46s CPU      1.50s WALL (       1 calls)

     Called by electrons:
     c_bands      :     48.77s CPU     56.15s WALL (      13 calls)
     sum_band     :     13.94s CPU     17.99s WALL (      13 calls)
     v_of_rho     :      1.92s CPU      2.07s WALL (      14 calls)
     newd         :      6.99s CPU     10.22s WALL (      14 calls)
     PAW_pot      :      7.64s CPU      8.46s WALL (      14 calls)
     mix_rho      :      0.29s CPU      0.32s WALL (      13 calls)

     Called by c_bands:
     init_us_2    :      0.69s CPU      0.83s WALL (     290 calls)
     init_us_2:cp :      0.69s CPU      0.83s WALL (     290 calls)
     cegterg      :     47.13s CPU     54.22s WALL (     130 calls)

     Called by *egterg:
     cdiaghg      :      1.19s CPU      1.40s WALL (     931 calls)
     h_psi        :     37.24s CPU     42.76s WALL (     941 calls)
     s_psi        :      1.36s CPU      1.55s WALL (     941 calls)
     g_psi        :      0.17s CPU      0.20s WALL (     801 calls)

     Called by h_psi:
     h_psi:calbec :      1.85s CPU      2.15s WALL (     941 calls)
     vloc_psi     :     33.70s CPU     38.70s WALL (     941 calls)
     add_vuspsi   :      1.54s CPU      1.76s WALL (     941 calls)

     General routines
     calbec       :      2.76s CPU      3.23s WALL (    1121 calls)
     fft          :      1.66s CPU      1.83s WALL (     205 calls)
     ffts         :      0.15s CPU      0.16s WALL (      27 calls)
     fftw         :     35.46s CPU     40.81s WALL (   25478 calls)
     interpolate  :      0.19s CPU      0.20s WALL (      14 calls)

     Parallel routines

     PWSCF        :   1m33.53s CPU   1m51.43s WALL


   This run was terminated on:   2:34:48   6May2024            

=------------------------------------------------------------------------------=
   JOB DONE.
=------------------------------------------------------------------------------=
