
     Program PWSCF v.7.1 starts on  6May2024 at  1:15:32 

     This program is part of the open-source Quantum ESPRESSO suite
     for quantum simulation of materials; please cite
         "P. Giannozzi et al., J. Phys.:Condens. Matter 21 395502 (2009);
         "P. Giannozzi et al., J. Phys.:Condens. Matter 29 465901 (2017);
         "P. Giannozzi et al., J. Chem. Phys. 152 154105 (2020);
          URL http://www.quantum-espresso.org", 
     in publications or presentations arising from this work. More details at
     http://www.quantum-espresso.org/quote

     Parallel version (MPI), running on     2 processors

     MPI processes distributed on     1 nodes
     13557 MiB available memory on the printing compute node when the environment starts

     Waiting for input...
     Reading input from standard input
Warning: card &CELL ignored
Warning: card / ignored

     Current dimensions of program PWSCF are:
     Max number of different atomic species (ntypx) = 10
     Max number of k-points (npk) =  40000
     Max angular momentum in pseudopotentials (lmaxx) =  4
     file Ba.pbe-spn-kjpaw_psl.1.0.0.UPF: wavefunction(s)  5S 6S renormalized
     file Bi.pbe-dn-kjpaw_psl.1.0.0.UPF: wavefunction(s)  6P 5D renormalized
     file O.pbe-n-kjpaw_psl.1.0.0.UPF: wavefunction(s)  2S 2P renormalized
     Message from routine setup:
     using ibrav=0 with symmetry is DISCOURAGED, use correct ibrav instead

     R & G space division:  proc/nbgrp/npool/nimage =       2
     Subspace diagonalization in iterative solution of the eigenvalue problem:
     a serial algorithm will be used


     Parallelization info
     --------------------
     sticks:   dense  smooth     PW     G-vecs:    dense   smooth      PW
     Min        1004     498    146                33844    11922    1954
     Max        1005     499    147                33847    11925    1957
     Sum        2009     997    293                67691    23847    3911

     Using Slab Decomposition



     bravais-lattice index     =            0
     lattice parameter (alat)  =       8.3715  a.u.
     unit-cell volume          =     586.6888 (a.u.)^3
     number of atoms/cell      =            5
     number of atomic types    =            3
     number of electrons       =        43.00
     number of Kohn-Sham states=           26
     kinetic-energy cutoff     =      45.0000  Ry
     charge density cutoff     =     360.0000  Ry
     scf convergence threshold =      1.0E-07
     mixing beta               =       0.7000
     number of iterations used =            8  plain     mixing
     Exchange-correlation= SLA  PW   PBX  PBC
                           (   1   4   3   4   0   0   0)

     celldm(1)=   8.371487  celldm(2)=   0.000000  celldm(3)=   0.000000
     celldm(4)=   0.000000  celldm(5)=   0.000000  celldm(6)=   0.000000

     crystal axes: (cart. coord. in units of alat)
               a(1) = (   1.000000   0.000000   0.000000 )  
               a(2) = (   0.000000   1.000000   0.000000 )  
               a(3) = (   0.000000   0.000000   1.000000 )  

     reciprocal axes: (cart. coord. in units 2 pi/alat)
               b(1) = (  1.000000  0.000000  0.000000 )  
               b(2) = (  0.000000  1.000000  0.000000 )  
               b(3) = (  0.000000  0.000000  1.000000 )  


     PseudoPot. # 1 for Ba read from file:
     /home/bond/Software/qe-7.1/pseudo/Ba.pbe-spn-kjpaw_psl.1.0.0.UPF
     MD5 check sum: 7cfe25f1fe7574a4710541d5a11d6531
     Pseudo is Projector augmented-wave + core cor, Zval = 10.0
     Generated using &quot;atomic&quot; code by A. Dal Corso  v.6.2.2
     Shape of augmentation charge: PSQ
     Using radial grid of 1251 points,  7 beta functions with: 
                l(1) =   0
                l(2) =   0
                l(3) =   0
                l(4) =   1
                l(5) =   1
                l(6) =   2
                l(7) =   2
     Q(r) pseudized with 0 coefficients 


     PseudoPot. # 2 for Bi read from file:
     /home/bond/Software/qe-7.1/pseudo/Bi.pbe-dn-kjpaw_psl.1.0.0.UPF
     MD5 check sum: 266ded784ae3bc462508ed03f0f37963
     Pseudo is Projector augmented-wave + core cor, Zval = 15.0
     Generated using &quot;atomic&quot; code by A. Dal Corso  v.6.2.2
     Shape of augmentation charge: PSQ
     Using radial grid of 1283 points,  6 beta functions with: 
                l(1) =   0
                l(2) =   0
                l(3) =   1
                l(4) =   1
                l(5) =   2
                l(6) =   2
     Q(r) pseudized with 0 coefficients 


     PseudoPot. # 3 for O  read from file:
     /home/bond/Software/qe-7.1/pseudo/O.pbe-n-kjpaw_psl.1.0.0.UPF
     MD5 check sum: e99d9cef9b487d1ca56f5b95ecd0fd7a
     Pseudo is Projector augmented-wave + core cor, Zval =  6.0
     Generated using &quot;atomic&quot; code by A. Dal Corso  v.6.3
     Shape of augmentation charge: PSQ
     Using radial grid of 1095 points,  4 beta functions with: 
                l(1) =   0
                l(2) =   0
                l(3) =   1
                l(4) =   1
     Q(r) pseudized with 0 coefficients 


     atomic species   valence    mass     pseudopotential
        Ba            10.00   137.32700     Ba( 1.00)
        Bi            15.00   208.98040     Bi( 1.00)
        O              6.00    15.99900     O ( 1.00)

     48 Sym. Ops., with inversion, found



   Cartesian axes

     site n.     atom                  positions (alat units)
         1           Ba  tau(   1) = (   0.5000000   0.5000000   0.5000000  )
         2           Bi  tau(   2) = (   0.0000000   0.0000000   0.0000000  )
         3           O   tau(   3) = (   0.0000000   0.0000000   0.5000000  )
         4           O   tau(   4) = (   0.5000000   0.0000000   0.0000000  )
         5           O   tau(   5) = (   0.0000000   0.5000000   0.0000000  )

     number of k points=    10  Methfessel-Paxton smearing, width (Ry)=  0.0200
                       cart. coord. in units 2pi/alat
        k(    1) = (   0.0000000   0.0000000   0.0000000), wk =   0.0312500
        k(    2) = (   0.0000000   0.0000000   0.2500000), wk =   0.1875000
        k(    3) = (   0.0000000   0.0000000  -0.5000000), wk =   0.0937500
        k(    4) = (   0.0000000   0.2500000   0.2500000), wk =   0.3750000
        k(    5) = (   0.0000000   0.2500000  -0.5000000), wk =   0.3750000
        k(    6) = (   0.0000000  -0.5000000  -0.5000000), wk =   0.0937500
        k(    7) = (   0.2500000   0.2500000   0.2500000), wk =   0.2500000
        k(    8) = (   0.2500000   0.2500000  -0.5000000), wk =   0.3750000
        k(    9) = (   0.2500000  -0.5000000  -0.5000000), wk =   0.1875000
        k(   10) = (  -0.5000000  -0.5000000  -0.5000000), wk =   0.0312500

     Dense  grid:    67691 G-vectors     FFT dimensions: (  54,  54,  54)

     Smooth grid:    23847 G-vectors     FFT dimensions: (  36,  36,  36)

     Estimated max dynamical RAM per process >     149.01 MB

     Estimated total dynamical RAM >     298.02 MB

     Check: negative core charge=   -0.000002

     Initial potential from superposition of free atoms

     starting charge      42.9822, renormalised to      43.0000
     Starting wfcs are   26 randomized atomic wfcs
     Checking if some PAW data can be deallocated... 

     total cpu time spent up to now is        4.0 secs

     Self-consistent Calculation

     iteration #  1     ecut=    45.00 Ry     beta= 0.70
     Davidson diagonalization with overlap
     ethr =  1.00E-02,  avg # of iterations =  4.6

     total cpu time spent up to now is        6.9 secs

     total energy              =   -1466.64910942 Ry
     estimated scf accuracy    <       1.74707221 Ry

     iteration #  2     ecut=    45.00 Ry     beta= 0.70
     Davidson diagonalization with overlap
     ethr =  4.06E-03,  avg # of iterations =  5.7

     total cpu time spent up to now is       10.3 secs

     total energy              =   -1467.07799691 Ry
     estimated scf accuracy    <       4.17006849 Ry

     iteration #  3     ecut=    45.00 Ry     beta= 0.70
     Davidson diagonalization with overlap
     ethr =  4.06E-03,  avg # of iterations =  4.0

     total cpu time spent up to now is       13.1 secs

     total energy              =   -1467.59860024 Ry
     estimated scf accuracy    <       0.14034329 Ry

     iteration #  4     ecut=    45.00 Ry     beta= 0.70
     Davidson diagonalization with overlap
     ethr =  3.26E-04,  avg # of iterations =  7.8

     total cpu time spent up to now is       16.5 secs

     total energy              =   -1467.75053435 Ry
     estimated scf accuracy    <       0.12072600 Ry

     iteration #  5     ecut=    45.00 Ry     beta= 0.70
     Davidson diagonalization with overlap
     ethr =  2.81E-04,  avg # of iterations =  2.5

     total cpu time spent up to now is       19.0 secs

     total energy              =   -1467.74847844 Ry
     estimated scf accuracy    <       0.02134949 Ry

     iteration #  6     ecut=    45.00 Ry     beta= 0.70
     Davidson diagonalization with overlap
     ethr =  4.96E-05,  avg # of iterations =  8.8

     total cpu time spent up to now is       22.4 secs

     total energy              =   -1467.76382285 Ry
     estimated scf accuracy    <       0.01207012 Ry

     iteration #  7     ecut=    45.00 Ry     beta= 0.70
     Davidson diagonalization with overlap
     ethr =  2.81E-05,  avg # of iterations =  2.4

     total cpu time spent up to now is       24.9 secs

     total energy              =   -1467.76169541 Ry
     estimated scf accuracy    <       0.00721647 Ry

     iteration #  8     ecut=    45.00 Ry     beta= 0.70
     Davidson diagonalization with overlap
     ethr =  1.68E-05,  avg # of iterations =  2.0

     total cpu time spent up to now is       27.5 secs

     total energy              =   -1467.76187469 Ry
     estimated scf accuracy    <       0.00125238 Ry

     iteration #  9     ecut=    45.00 Ry     beta= 0.70
     Davidson diagonalization with overlap
     c_bands:  1 eigenvalues not converged
     c_bands:  1 eigenvalues not converged
     ethr =  2.91E-06,  avg # of iterations = 10.8

     total cpu time spent up to now is       31.0 secs

     total energy              =   -1467.76265337 Ry
     estimated scf accuracy    <       0.00026120 Ry

     iteration # 10     ecut=    45.00 Ry     beta= 0.70
     Davidson diagonalization with overlap
     ethr =  6.07E-07,  avg # of iterations =  2.6

     total cpu time spent up to now is       33.6 secs

     total energy              =   -1467.76266274 Ry
     estimated scf accuracy    <       0.00010660 Ry

     iteration # 11     ecut=    45.00 Ry     beta= 0.70
     Davidson diagonalization with overlap
     ethr =  2.48E-07,  avg # of iterations =  1.2

     total cpu time spent up to now is       36.1 secs

     total energy              =   -1467.76265497 Ry
     estimated scf accuracy    <       0.00009881 Ry

     iteration # 12     ecut=    45.00 Ry     beta= 0.70
     Davidson diagonalization with overlap
     ethr =  2.30E-07,  avg # of iterations =  1.1

     total cpu time spent up to now is       38.6 secs

     total energy              =   -1467.76266842 Ry
     estimated scf accuracy    <       0.00006468 Ry

     iteration # 13     ecut=    45.00 Ry     beta= 0.70
     Davidson diagonalization with overlap
     ethr =  1.50E-07,  avg # of iterations =  1.3

     total cpu time spent up to now is       41.3 secs

     total energy              =   -1467.76270645 Ry
     estimated scf accuracy    <       0.00009472 Ry

     iteration # 14     ecut=    45.00 Ry     beta= 0.70
     Davidson diagonalization with overlap
     ethr =  1.50E-07,  avg # of iterations =  1.7

     total cpu time spent up to now is       44.0 secs

     total energy              =   -1467.76266633 Ry
     estimated scf accuracy    <       0.00021543 Ry

     iteration # 15     ecut=    45.00 Ry     beta= 0.70
     Davidson diagonalization with overlap
     ethr =  1.50E-07,  avg # of iterations =  1.5

     total cpu time spent up to now is       46.5 secs

     total energy              =   -1467.76266798 Ry
     estimated scf accuracy    <       0.00010647 Ry

     iteration # 16     ecut=    45.00 Ry     beta= 0.70
     Davidson diagonalization with overlap
     ethr =  1.50E-07,  avg # of iterations =  1.0

     total cpu time spent up to now is       48.9 secs

     total energy              =   -1467.76266176 Ry
     estimated scf accuracy    <       0.00009323 Ry

     iteration # 17     ecut=    45.00 Ry     beta= 0.70
     Davidson diagonalization with overlap
     ethr =  1.50E-07,  avg # of iterations =  1.0

     total cpu time spent up to now is       51.4 secs

     total energy              =   -1467.76267380 Ry
     estimated scf accuracy    <       0.00007033 Ry

     iteration # 18     ecut=    45.00 Ry     beta= 0.70
     Davidson diagonalization with overlap
     ethr =  1.50E-07,  avg # of iterations =  1.1

     total cpu time spent up to now is       53.8 secs

     total energy              =   -1467.76264375 Ry
     estimated scf accuracy    <       0.00010587 Ry

     iteration # 19     ecut=    45.00 Ry     beta= 0.70
     Davidson diagonalization with overlap
     ethr =  1.50E-07,  avg # of iterations =  1.3

     total cpu time spent up to now is       56.2 secs

     total energy              =   -1467.76263480 Ry
     estimated scf accuracy    <       0.00003069 Ry

     iteration # 20     ecut=    45.00 Ry     beta= 0.70
     Davidson diagonalization with overlap
     c_bands:  1 eigenvalues not converged
     ethr =  7.14E-08,  avg # of iterations =  5.9

     total cpu time spent up to now is       59.4 secs

     total energy              =   -1467.76264880 Ry
     estimated scf accuracy    <       0.00000459 Ry

     iteration # 21     ecut=    45.00 Ry     beta= 0.70
     Davidson diagonalization with overlap
     ethr =  1.07E-08,  avg # of iterations =  3.3

     total cpu time spent up to now is       62.1 secs

     total energy              =   -1467.76264775 Ry
     estimated scf accuracy    <       0.00000212 Ry

     iteration # 22     ecut=    45.00 Ry     beta= 0.70
     Davidson diagonalization with overlap
     ethr =  4.93E-09,  avg # of iterations =  4.3

     total cpu time spent up to now is       65.2 secs

     total energy              =   -1467.76264864 Ry
     estimated scf accuracy    <       0.00000093 Ry

     iteration # 23     ecut=    45.00 Ry     beta= 0.70
     Davidson diagonalization with overlap
     ethr =  2.17E-09,  avg # of iterations =  1.3

     total cpu time spent up to now is       67.6 secs

     total energy              =   -1467.76264861 Ry
     estimated scf accuracy    <       0.00000024 Ry

     iteration # 24     ecut=    45.00 Ry     beta= 0.70
     Davidson diagonalization with overlap
     ethr =  5.64E-10,  avg # of iterations =  3.4

     total cpu time spent up to now is       70.6 secs

     End of self-consistent calculation

          k = 0.0000 0.0000 0.0000 (  2945 PWs)   bands (ev):

   -17.3307 -13.1691 -13.1691 -12.7888 -12.7888 -12.7888  -8.8766  -6.5559
    -6.5559  -2.4411  -2.4411  -2.4411   3.2160   4.0401   4.0401   4.0401
     7.6431   7.6431   7.6431   7.8635   7.8635   7.8635  12.9889  12.9889
    14.0288  14.9177

          k = 0.0000 0.0000 0.2500 (  2982 PWs)   bands (ev):

   -17.3189 -13.1686 -13.0899 -12.7930 -12.7930 -12.7886  -8.7231  -7.0175
    -6.5500  -2.4033  -2.4033  -2.3828   1.6722   4.0494   4.0494   6.0285
     7.3779   7.5286   7.5286   7.7472   7.7472   8.2127  13.6506  13.6685
    15.0422  15.3654

          k = 0.0000 0.0000-0.5000 (  2946 PWs)   bands (ev):

   -17.3069 -13.1681 -13.0083 -12.7971 -12.7971 -12.7884  -8.3987  -7.6420
    -6.5441  -2.3647  -2.3647  -2.3419   1.0718   4.0515   4.0515   6.4003
     7.1478   7.4887   7.4887   7.5816   7.5816   9.7645  14.1344  14.3498
    15.2146  15.7467

          k = 0.0000 0.2500 0.2500 (  3003 PWs)   bands (ev):

   -17.3084 -13.1302 -13.0455 -12.7965 -12.7928 -12.7927  -8.5645  -7.1592
    -6.8097  -2.4484  -2.3733  -2.3596   0.6001   4.1236   5.4448   6.1416
     7.0262   7.3911   7.5914   7.6613   8.0311   8.6703  14.0130  14.4384
    15.1062  15.4695

          k = 0.0000 0.2500-0.5000 (  3004 PWs)   bands (ev):

   -17.2978 -13.1196 -12.9702 -12.8000 -12.7968 -12.7925  -8.2135  -7.6735
    -6.8922  -2.4255  -2.4156  -2.3428   0.0318   4.1977   5.8512   6.2752
     7.1135   7.3378   7.3673   7.6008   8.0327  10.1743  14.3143  14.8016
    15.0698  15.8275

          k = 0.0000-0.5000-0.5000 (  3016 PWs)   bands (ev):

   -17.2886 -13.0928 -12.9069 -12.8029 -12.7965 -12.7965  -7.7053  -7.7053
    -7.5779  -2.4824  -2.4824  -2.3205  -0.5614   4.3612   6.0984   7.1680
     7.1680   7.2668   7.2668   7.6217   8.3681  11.3187  14.1838  14.1838
    14.6841  15.0988

          k = 0.2500 0.2500 0.2500 (  2998 PWs)   bands (ev):

   -17.2987 -13.0451 -13.0451 -12.7970 -12.7970 -12.7958  -8.4154  -7.1380
    -7.1380  -2.4779  -2.4779  -2.3344  -0.3378   5.5117   5.5117   6.2109
     7.0530   7.0530   7.9439   7.9439   8.0124   9.0054  14.2798  14.2798
    14.8579  15.3454

          k = 0.2500 0.2500-0.5000 (  2992 PWs)   bands (ev):

   -17.2890 -13.0446 -12.9566 -12.8014 -12.7997 -12.7968  -8.0698  -7.6737
    -7.1165  -2.5080  -2.4935  -2.4046  -0.9160   5.5770   6.2537   6.4264
     6.9179   7.2146   7.7794   7.8674   8.1325  10.4558  13.6010  14.2785
    14.7716  15.2410

          k = 0.2500-0.5000-0.5000 (  3000 PWs)   bands (ev):

   -17.2802 -13.0019 -12.9067 -12.8043 -12.8011 -12.8011  -7.6745  -7.6745
    -7.6080  -2.5638  -2.5638  -2.4878  -1.5465   6.0415   6.5042   6.9412
     6.9412   7.6269   7.8957   7.8957   8.3932  11.5338  13.0713  13.0713
    13.8519  15.6765

          k =-0.5000-0.5000-0.5000 (  3016 PWs)   bands (ev):

   -17.2717 -12.9066 -12.9066 -12.8057 -12.8057 -12.8057  -7.6431  -7.6431
    -7.6431  -2.6448  -2.6448  -2.6448  -2.2528   6.9097   6.9097   6.9097
     7.6322   7.6322   8.4187   8.4187   8.4187  12.1824  12.1824  12.1824
    12.6847  16.6761

     the Fermi energy is    10.0651 ev

!    total energy              =   -1467.76264870 Ry
     total all-electron energy =    -59784.854431 Ry
     estimated scf accuracy    <          3.4E-09 Ry
     smearing contrib. (-TS)   =      -0.00007776 Ry
     internal energy E=F+TS    =   -1467.76257094 Ry

     The total energy is F=E-TS. E is the sum of the following terms:
     one-electron contribution =     -84.11239616 Ry
     hartree contribution      =      73.68525838 Ry
     xc contribution           =     -75.26778235 Ry
     ewald contribution        =    -221.76066282 Ry
     one-center paw contrib.   =   -1160.30698799 Ry

     convergence has been achieved in  24 iterations

     Forces acting on atoms (cartesian axes, Ry/au):

     atom    1 type  1   force =     0.00000000    0.00000000    0.00000000
     atom    2 type  2   force =     0.00000000    0.00000000    0.00000000
     atom    3 type  3   force =     0.00000000    0.00000000    0.00000000
     atom    4 type  3   force =     0.00000000    0.00000000    0.00000000
     atom    5 type  3   force =     0.00000000    0.00000000    0.00000000

     Total force =     0.000000     Total SCF correction =     0.000000


     Computing stress (Cartesian axis) and pressure

          total   stress  (Ry/bohr**3)                   (kbar)     P=       -7.46
  -0.00005071   0.00000000   0.00000000           -7.46        0.00        0.00
   0.00000000  -0.00005071   0.00000000            0.00       -7.46        0.00
   0.00000000   0.00000000  -0.00005071            0.00        0.00       -7.46


     init_run     :      2.59s CPU      2.93s WALL (       1 calls)
     electrons    :     58.09s CPU     66.65s WALL (       1 calls)
     forces       :      0.79s CPU      0.95s WALL (       1 calls)
     stress       :      3.96s CPU      4.38s WALL (       1 calls)

     Called by init_run:
     wfcinit      :      0.41s CPU      0.45s WALL (       1 calls)
     potinit      :      0.83s CPU      0.89s WALL (       1 calls)
     hinit0       :      1.04s CPU      1.17s WALL (       1 calls)

     Called by electrons:
     c_bands      :     26.04s CPU     27.98s WALL (      24 calls)
     sum_band     :     11.26s CPU     14.44s WALL (      24 calls)
     v_of_rho     :      1.70s CPU      1.82s WALL (      25 calls)
     newd         :      6.26s CPU      8.78s WALL (      25 calls)
     PAW_pot      :     13.19s CPU     14.07s WALL (      25 calls)
     mix_rho      :      0.26s CPU      0.26s WALL (      24 calls)

     Called by c_bands:
     init_us_2    :      0.70s CPU      0.75s WALL (     510 calls)
     init_us_2:cp :      0.70s CPU      0.74s WALL (     510 calls)
     cegterg      :     24.45s CPU     26.27s WALL (     240 calls)

     Called by *egterg:
     cdiaghg      :      1.28s CPU      1.35s WALL (    1046 calls)
     h_psi        :     18.51s CPU     19.94s WALL (    1056 calls)
     s_psi        :      0.99s CPU      1.06s WALL (    1056 calls)
     g_psi        :      0.12s CPU      0.12s WALL (     806 calls)

     Called by h_psi:
     h_psi:calbec :      1.20s CPU      1.27s WALL (    1056 calls)
     vloc_psi     :     16.10s CPU     17.39s WALL (    1056 calls)
     add_vuspsi   :      1.09s CPU      1.15s WALL (    1056 calls)

     General routines
     calbec       :      1.73s CPU      1.83s WALL (    1346 calls)
     fft          :      1.17s CPU      1.25s WALL (     348 calls)
     ffts         :      0.23s CPU      0.24s WALL (      49 calls)
     fftw         :     17.19s CPU     18.54s WALL (   37258 calls)
     interpolate  :      0.30s CPU      0.32s WALL (      25 calls)

     Parallel routines

     PWSCF        :   1m 6.36s CPU   1m15.97s WALL


   This run was terminated on:   1:16:48   6May2024            

=------------------------------------------------------------------------------=
   JOB DONE.
=------------------------------------------------------------------------------=
