
     Program PWSCF v.7.1 starts on  6May2024 at  6:16:53 

     This program is part of the open-source Quantum ESPRESSO suite
     for quantum simulation of materials; please cite
         "P. Giannozzi et al., J. Phys.:Condens. Matter 21 395502 (2009);
         "P. Giannozzi et al., J. Phys.:Condens. Matter 29 465901 (2017);
         "P. Giannozzi et al., J. Chem. Phys. 152 154105 (2020);
          URL http://www.quantum-espresso.org", 
     in publications or presentations arising from this work. More details at
     http://www.quantum-espresso.org/quote

     Parallel version (MPI), running on     2 processors

     MPI processes distributed on     1 nodes
     13453 MiB available memory on the printing compute node when the environment starts

     Waiting for input...
     Reading input from standard input
Warning: card &CELL ignored
Warning: card / ignored

     Current dimensions of program PWSCF are:
     Max number of different atomic species (ntypx) = 10
     Max number of k-points (npk) =  40000
     Max angular momentum in pseudopotentials (lmaxx) =  4
     file Ba.pbe-spn-kjpaw_psl.1.0.0.UPF: wavefunction(s)  5S 6S renormalized
     Message from routine setup:
     using ibrav=0 with symmetry is DISCOURAGED, use correct ibrav instead

     R & G space division:  proc/nbgrp/npool/nimage =       2
     Subspace diagonalization in iterative solution of the eigenvalue problem:
     a serial algorithm will be used


     Parallelization info
     --------------------
     sticks:   dense  smooth     PW     G-vecs:    dense   smooth      PW
     Min        1353     675    193                44407    15694    2376
     Max        1354     676    194                44408    15695    2377
     Sum        2707    1351    387                88815    31389    4753

     Using Slab Decomposition



     bravais-lattice index     =            0
     lattice parameter (alat)  =       8.0191  a.u.
     unit-cell volume          =     396.9674 (a.u.)^3
     number of atoms/cell      =            1
     number of atomic types    =            1
     number of electrons       =        10.00
     number of Kohn-Sham states=            9
     kinetic-energy cutoff     =      70.0000  Ry
     charge density cutoff     =     560.0000  Ry
     scf convergence threshold =      1.0E-07
     mixing beta               =       0.7000
     number of iterations used =            8  plain     mixing
     energy convergence thresh.=      1.0E-04
     force convergence thresh. =      1.0E-03
     Exchange-correlation= SLA  PW   PBX  PBC
                           (   1   4   3   4   0   0   0)
     nstep                     =           50


     celldm(1)=   8.019099  celldm(2)=   0.000000  celldm(3)=   0.000000
     celldm(4)=   0.000000  celldm(5)=   0.000000  celldm(6)=   0.000000

     crystal axes: (cart. coord. in units of alat)
               a(1) = (  -0.577350   0.577350   0.577350 )  
               a(2) = (   0.577350  -0.577350   0.577350 )  
               a(3) = (   0.577350   0.577350  -0.577350 )  

     reciprocal axes: (cart. coord. in units 2 pi/alat)
               b(1) = (  0.000000  0.866025  0.866025 )  
               b(2) = (  0.866025  0.000000  0.866025 )  
               b(3) = (  0.866025  0.866025  0.000000 )  


     PseudoPot. # 1 for Ba read from file:
     /home/bond/Software/qe-7.1/pseudo/Ba.pbe-spn-kjpaw_psl.1.0.0.UPF
     MD5 check sum: 7cfe25f1fe7574a4710541d5a11d6531
     Pseudo is Projector augmented-wave + core cor, Zval = 10.0
     Generated using &quot;atomic&quot; code by A. Dal Corso  v.6.2.2
     Shape of augmentation charge: PSQ
     Using radial grid of 1251 points,  7 beta functions with: 
                l(1) =   0
                l(2) =   0
                l(3) =   0
                l(4) =   1
                l(5) =   1
                l(6) =   2
                l(7) =   2
     Q(r) pseudized with 0 coefficients 


     atomic species   valence    mass     pseudopotential
        Ba            10.00   137.32700     Ba( 1.00)

     48 Sym. Ops., with inversion, found



   Cartesian axes

     site n.     atom                  positions (alat units)
         1           Ba  tau(   1) = (   0.0000000   0.0000000   0.0000000  )

     number of k points=    10  Methfessel-Paxton smearing, width (Ry)=  0.0200
                       cart. coord. in units 2pi/alat
        k(    1) = (   0.0000000   0.0000000   0.0000000), wk =   0.0160000
        k(    2) = (   0.1732051   0.1732051   0.0000000), wk =   0.1920000
        k(    3) = (   0.3464102   0.3464102   0.0000000), wk =   0.1920000
        k(    4) = (   0.3464102   0.1732051   0.1732051), wk =   0.3840000
        k(    5) = (   0.5196152   0.3464102   0.1732051), wk =   0.3840000
        k(    6) = (   0.3464102   0.3464102   0.3464102), wk =   0.1280000
        k(    7) = (   0.0000000   0.0000000   0.3464102), wk =   0.0960000
        k(    8) = (   0.0000000  -0.1732051   0.5196152), wk =   0.3840000
        k(    9) = (  -0.6928203  -0.1732051  -0.1732051), wk =   0.1280000
        k(   10) = (   0.0000000   0.0000000   0.6928203), wk =   0.0960000

     Dense  grid:    88815 G-vectors     FFT dimensions: (  64,  64,  64)

     Smooth grid:    31389 G-vectors     FFT dimensions: (  45,  45,  45)

     Estimated max dynamical RAM per process >     182.39 MB

     Estimated total dynamical RAM >     364.77 MB

     Initial potential from superposition of free atoms

     starting charge       9.9830, renormalised to      10.0000
     Starting wfcs are    5 randomized atomic wfcs +    4 random wfcs
     Checking if some PAW data can be deallocated... 

     total cpu time spent up to now is        2.4 secs

     Self-consistent Calculation

     iteration #  1     ecut=    70.00 Ry     beta= 0.70
     Davidson diagonalization with overlap
     ethr =  1.00E-02,  avg # of iterations =  7.7

     Threshold (ethr) on eigenvalues was too large:
     Diagonalizing with lowered threshold

     Davidson diagonalization with overlap
     ethr =  9.51E-06,  avg # of iterations =  8.6

     total cpu time spent up to now is        6.4 secs

     total energy              =    -436.18107573 Ry
     estimated scf accuracy    <       0.00097084 Ry

     iteration #  2     ecut=    70.00 Ry     beta= 0.70
     Davidson diagonalization with overlap
     ethr =  9.71E-06,  avg # of iterations =  1.1

     total cpu time spent up to now is        7.9 secs

     total energy              =    -436.18119645 Ry
     estimated scf accuracy    <       0.00009855 Ry

     iteration #  3     ecut=    70.00 Ry     beta= 0.70
     Davidson diagonalization with overlap
     ethr =  9.85E-07,  avg # of iterations =  2.2

     total cpu time spent up to now is        9.6 secs

     total energy              =    -436.18120835 Ry
     estimated scf accuracy    <       0.00000420 Ry

     iteration #  4     ecut=    70.00 Ry     beta= 0.70
     Davidson diagonalization with overlap
     ethr =  4.20E-08,  avg # of iterations =  4.0

     total cpu time spent up to now is       11.8 secs

     total energy              =    -436.18121010 Ry
     estimated scf accuracy    <       0.00000115 Ry

     iteration #  5     ecut=    70.00 Ry     beta= 0.70
     Davidson diagonalization with overlap
     ethr =  1.15E-08,  avg # of iterations =  2.0

     total cpu time spent up to now is       13.6 secs

     total energy              =    -436.18121033 Ry
     estimated scf accuracy    <       0.00000030 Ry

     iteration #  6     ecut=    70.00 Ry     beta= 0.70
     Davidson diagonalization with overlap
     ethr =  3.02E-09,  avg # of iterations =  1.1

     total cpu time spent up to now is       15.2 secs

     End of self-consistent calculation

          k = 0.0000 0.0000 0.0000 (  3997 PWs)   bands (ev):

   -22.3904  -7.2924  -7.2924  -7.2924   3.6129   8.2984   8.2984   8.2984
     9.7894

          k = 0.1732 0.1732 0.0000 (  3927 PWs)   bands (ev):

   -22.3704  -7.5012  -7.3564  -7.2941   4.3508   7.7681   7.8039   9.0988
     9.4382

          k = 0.3464 0.3464 0.0000 (  3918 PWs)   bands (ev):

   -22.3377  -7.8127  -7.4568  -7.2970   5.3828   7.1587   7.5811   9.8244
    10.2007

          k = 0.3464 0.1732 0.1732 (  3913 PWs)   bands (ev):

   -22.3440  -7.7087  -7.4484  -7.3384   5.4405   7.0886   7.3966   9.3616
    10.3206

          k = 0.5196 0.3464 0.1732 (  3940 PWs)   bands (ev):

   -22.3276  -7.7943  -7.5568  -7.3512   6.0097   7.0338   7.3593   9.6384
    10.4326

          k = 0.3464 0.3464 0.3464 (  3913 PWs)   bands (ev):

   -22.3307  -7.7230  -7.4870  -7.4870   6.6663   6.8996   6.8996  10.3916
    11.3656

          k = 0.0000 0.0000 0.3464 (  3932 PWs)   bands (ev):

   -22.3522  -7.5328  -7.4243  -7.4243   5.0049   7.6683   8.1895   8.1895
     9.0631

          k = 0.0000-0.1732 0.5196 (  3936 PWs)   bands (ev):

   -22.3225  -7.7606  -7.5307  -7.4397   5.9675   6.8103   7.9273   8.6000
    10.4582

          k =-0.6928-0.1732-0.1732 (  3925 PWs)   bands (ev):

   -22.3092  -7.7036  -7.7036  -7.4670   6.4151   6.4151   7.4861   9.9870
     9.9870

          k = 0.0000 0.0000 0.6928 (  3924 PWs)   bands (ev):

   -22.2978  -7.6853  -7.6459  -7.6459   5.9649   5.9920   9.6559   9.6559
    10.2153

     the Fermi energy is     6.4602 ev

!    total energy              =    -436.18121034 Ry
     total all-electron energy =    -16271.274326 Ry
     estimated scf accuracy    <          3.3E-09 Ry
     smearing contrib. (-TS)   =       0.00089393 Ry
     internal energy E=F+TS    =    -436.18210427 Ry

     The total energy is F=E-TS. E is the sum of the following terms:
     one-electron contribution =      -9.99486218 Ry
     hartree contribution      =       8.24826986 Ry
     xc contribution           =     -20.18462231 Ry
     ewald contribution        =     -39.30202871 Ry
     one-center paw contrib.   =    -374.94886093 Ry

     convergence has been achieved in   6 iterations

     Forces acting on atoms (cartesian axes, Ry/au):

     atom    1 type  1   force =     0.00000000    0.00000000    0.00000000

     Total force =     0.000000     Total SCF correction =     0.000000


     Computing stress (Cartesian axis) and pressure

          total   stress  (Ry/bohr**3)                   (kbar)     P=        5.27
   0.00003581  -0.00000000  -0.00000000            5.27       -0.00       -0.00
  -0.00000000   0.00003581  -0.00000000           -0.00        5.27       -0.00
  -0.00000000  -0.00000000   0.00003581           -0.00       -0.00        5.27


     BFGS Geometry Optimization
     Energy error            =      0.0E+00 Ry
     Gradient error          =      0.0E+00 Ry/Bohr

     bfgs converged in   1 scf cycles and   0 bfgs steps
     (criteria: energy <  1.0E-04 Ry, force <  1.0E-03 Ry/Bohr)

     End of BFGS Geometry Optimization

     Final energy             =    -436.1812103408 Ry
Begin final coordinates

ATOMIC_POSITIONS (angstrom)
Ba            0.0000000000        0.0000000000        0.0000000000
End final coordinates



     init_run     :      1.60s CPU      1.88s WALL (       1 calls)
     electrons    :     11.02s CPU     12.85s WALL (       1 calls)
     forces       :      0.45s CPU      0.50s WALL (       1 calls)
     stress       :      2.39s CPU      2.75s WALL (       1 calls)

     Called by init_run:
     wfcinit      :      0.28s CPU      0.34s WALL (       1 calls)
     potinit      :      0.39s CPU      0.45s WALL (       1 calls)
     hinit0       :      0.67s CPU      0.74s WALL (       1 calls)

     Called by electrons:
     c_bands      :      5.60s CPU      6.00s WALL (       7 calls)
     sum_band     :      2.55s CPU      3.27s WALL (       7 calls)
     v_of_rho     :      0.74s CPU      0.91s WALL (       7 calls)
     newd         :      1.21s CPU      1.73s WALL (       7 calls)
     PAW_pot      :      1.19s CPU      1.33s WALL (       7 calls)
     mix_rho      :      0.06s CPU      0.08s WALL (       7 calls)

     Called by c_bands:
     init_us_2    :      0.17s CPU      0.19s WALL (     170 calls)
     init_us_2:cp :      0.17s CPU      0.19s WALL (     170 calls)
     cegterg      :      5.34s CPU      5.71s WALL (      70 calls)

     Called by *egterg:
     cdiaghg      :      0.07s CPU      0.08s WALL (     327 calls)
     h_psi        :      4.98s CPU      5.37s WALL (     347 calls)
     s_psi        :      0.08s CPU      0.08s WALL (     347 calls)
     g_psi        :      0.02s CPU      0.02s WALL (     267 calls)

     Called by h_psi:
     h_psi:calbec :      0.13s CPU      0.14s WALL (     347 calls)
     vloc_psi     :      4.73s CPU      5.11s WALL (     347 calls)
     add_vuspsi   :      0.10s CPU      0.10s WALL (     347 calls)

     General routines
     calbec       :      0.21s CPU      0.25s WALL (     467 calls)
     fft          :      0.72s CPU      0.84s WALL (     115 calls)
     ffts         :      0.12s CPU      0.12s WALL (      14 calls)
     fftw         :      5.11s CPU      5.63s WALL (    4464 calls)
     interpolate  :      0.14s CPU      0.14s WALL (       7 calls)

     Parallel routines

     PWSCF        :     15.87s CPU     18.49s WALL


   This run was terminated on:   6:17:12   6May2024            

=------------------------------------------------------------------------------=
   JOB DONE.
=------------------------------------------------------------------------------=
