
     Program PWSCF v.7.1 starts on  7May2024 at  2:31: 6 

     This program is part of the open-source Quantum ESPRESSO suite
     for quantum simulation of materials; please cite
         "P. Giannozzi et al., J. Phys.:Condens. Matter 21 395502 (2009);
         "P. Giannozzi et al., J. Phys.:Condens. Matter 29 465901 (2017);
         "P. Giannozzi et al., J. Chem. Phys. 152 154105 (2020);
          URL http://www.quantum-espresso.org", 
     in publications or presentations arising from this work. More details at
     http://www.quantum-espresso.org/quote

     Parallel version (MPI), running on     2 processors

     MPI processes distributed on     1 nodes
     13629 MiB available memory on the printing compute node when the environment starts

     Waiting for input...
     Reading input from standard input
Warning: card &CELL ignored
Warning: card / ignored

     Current dimensions of program PWSCF are:
     Max number of different atomic species (ntypx) = 10
     Max number of k-points (npk) =  40000
     Max angular momentum in pseudopotentials (lmaxx) =  4
     file Mg.pbe-spnl-kjpaw_psl.1.0.0.UPF: wavefunction(s)  2P renormalized
     file O.pbe-n-kjpaw_psl.1.0.0.UPF: wavefunction(s)  2S 2P renormalized
     Message from routine setup:
     using ibrav=0 with symmetry is DISCOURAGED, use correct ibrav instead

     R & G space division:  proc/nbgrp/npool/nimage =       2
     Subspace diagonalization in iterative solution of the eigenvalue problem:
     a serial algorithm will be used


     Parallelization info
     --------------------
     sticks:   dense  smooth     PW     G-vecs:    dense   smooth      PW
     Min         612     297     93                13994     4919     843
     Max         613     298     94                13995     4922     844
     Sum        1225     595    187                27989     9841    1687

     Using Slab Decomposition



     bravais-lattice index     =            0
     lattice parameter (alat)  =       5.6256  a.u.
     unit-cell volume          =     125.8876 (a.u.)^3
     number of atoms/cell      =            2
     number of atomic types    =            2
     number of electrons       =        16.00
     number of Kohn-Sham states=           12
     kinetic-energy cutoff     =      70.0000  Ry
     charge density cutoff     =     560.0000  Ry
     scf convergence threshold =      1.0E-07
     mixing beta               =       0.7000
     number of iterations used =            8  plain     mixing
     energy convergence thresh.=      1.0E-04
     force convergence thresh. =      1.0E-03
     Exchange-correlation= SLA  PW   PBX  PBC
                           (   1   4   3   4   0   0   0)
     nstep                     =           50


     celldm(1)=   5.625563  celldm(2)=   0.000000  celldm(3)=   0.000000
     celldm(4)=   0.000000  celldm(5)=   0.000000  celldm(6)=   0.000000

     crystal axes: (cart. coord. in units of alat)
               a(1) = (   0.000000   0.707107   0.707107 )  
               a(2) = (   0.707107   0.000000   0.707107 )  
               a(3) = (   0.707107   0.707107   0.000000 )  

     reciprocal axes: (cart. coord. in units 2 pi/alat)
               b(1) = ( -0.707107  0.707107  0.707107 )  
               b(2) = (  0.707107 -0.707107  0.707107 )  
               b(3) = (  0.707107  0.707107 -0.707107 )  


     PseudoPot. # 1 for Mg read from file:
     /home/bond/Software/qe-7.1/pseudo/Mg.pbe-spnl-kjpaw_psl.1.0.0.UPF
     MD5 check sum: fda14e0d92a6a9a5ebed782e5a4b3067
     Pseudo is Projector augmented-wave + core cor, Zval = 10.0
     Generated using &quot;atomic&quot; code by A. Dal Corso  v.6.3
     Shape of augmentation charge: PSQ
     Using radial grid of 1129 points,  4 beta functions with: 
                l(1) =   0
                l(2) =   0
                l(3) =   1
                l(4) =   1
     Q(r) pseudized with 0 coefficients 


     PseudoPot. # 2 for O  read from file:
     /home/bond/Software/qe-7.1/pseudo/O.pbe-n-kjpaw_psl.1.0.0.UPF
     MD5 check sum: e99d9cef9b487d1ca56f5b95ecd0fd7a
     Pseudo is Projector augmented-wave + core cor, Zval =  6.0
     Generated using &quot;atomic&quot; code by A. Dal Corso  v.6.3
     Shape of augmentation charge: PSQ
     Using radial grid of 1095 points,  4 beta functions with: 
                l(1) =   0
                l(2) =   0
                l(3) =   1
                l(4) =   1
     Q(r) pseudized with 0 coefficients 


     atomic species   valence    mass     pseudopotential
        Mg            10.00    24.30500     Mg( 1.00)
        O              6.00    15.99900     O ( 1.00)

     48 Sym. Ops., with inversion, found



   Cartesian axes

     site n.     atom                  positions (alat units)
         1           Mg  tau(   1) = (   0.0000000   0.0000000   0.0000000  )
         2           O   tau(   2) = (   0.7071068   0.0000000   0.0000000  )

     number of k points=    10  Methfessel-Paxton smearing, width (Ry)=  0.0200
                       cart. coord. in units 2pi/alat
        k(    1) = (   0.0000000   0.0000000   0.0000000), wk =   0.0160000
        k(    2) = (   0.1414214   0.1414214  -0.1414214), wk =   0.1280000
        k(    3) = (   0.2828427   0.2828427  -0.2828427), wk =   0.1280000
        k(    4) = (   0.2828427   0.0000000   0.0000000), wk =   0.0960000
        k(    5) = (   0.4242641   0.1414214  -0.1414214), wk =   0.3840000
        k(    6) = (  -0.1414214  -0.4242641   0.4242641), wk =   0.3840000
        k(    7) = (   0.0000000  -0.2828427   0.2828427), wk =   0.1920000
        k(    8) = (   0.5656854   0.0000000   0.0000000), wk =   0.0960000
        k(    9) = (   0.0000000  -0.5656854   0.5656854), wk =   0.1920000
        k(   10) = (  -0.1414214  -0.4242641   0.7071068), wk =   0.3840000

     Dense  grid:    27989 G-vectors     FFT dimensions: (  45,  45,  45)

     Smooth grid:     9841 G-vectors     FFT dimensions: (  30,  30,  30)

     Estimated max dynamical RAM per process >      22.54 MB

     Estimated total dynamical RAM >      45.08 MB

     Check: negative core charge=   -0.000004

     Initial potential from superposition of free atoms

     starting charge      15.9991, renormalised to      16.0000
     Starting wfcs are    9 randomized atomic wfcs +    3 random wfcs
     Checking if some PAW data can be deallocated... 

     total cpu time spent up to now is        1.5 secs

     Self-consistent Calculation

     iteration #  1     ecut=    70.00 Ry     beta= 0.70
     Davidson diagonalization with overlap
     ethr =  1.00E-02,  avg # of iterations =  7.1

     total cpu time spent up to now is        2.1 secs

     total energy              =    -183.12879661 Ry
     estimated scf accuracy    <       0.40469022 Ry

     iteration #  2     ecut=    70.00 Ry     beta= 0.70
     Davidson diagonalization with overlap
     ethr =  2.53E-03,  avg # of iterations =  4.0

     total cpu time spent up to now is        2.6 secs

     total energy              =    -183.24012538 Ry
     estimated scf accuracy    <       0.38155612 Ry

     iteration #  3     ecut=    70.00 Ry     beta= 0.70
     Davidson diagonalization with overlap
     ethr =  2.38E-03,  avg # of iterations =  1.3

     total cpu time spent up to now is        3.0 secs

     total energy              =    -183.29639071 Ry
     estimated scf accuracy    <       0.00869282 Ry

     iteration #  4     ecut=    70.00 Ry     beta= 0.70
     Davidson diagonalization with overlap
     ethr =  5.43E-05,  avg # of iterations =  4.8

     total cpu time spent up to now is        3.6 secs

     total energy              =    -183.31241341 Ry
     estimated scf accuracy    <       0.04013320 Ry

     iteration #  5     ecut=    70.00 Ry     beta= 0.70
     Davidson diagonalization with overlap
     ethr =  5.43E-05,  avg # of iterations =  3.5

     total cpu time spent up to now is        4.0 secs

     total energy              =    -183.31420333 Ry
     estimated scf accuracy    <       0.00421101 Ry

     iteration #  6     ecut=    70.00 Ry     beta= 0.70
     Davidson diagonalization with overlap
     ethr =  2.63E-05,  avg # of iterations =  3.4

     total cpu time spent up to now is        4.5 secs

     total energy              =    -183.31560517 Ry
     estimated scf accuracy    <       0.00002423 Ry

     iteration #  7     ecut=    70.00 Ry     beta= 0.70
     Davidson diagonalization with overlap
     ethr =  1.51E-07,  avg # of iterations =  5.5

     total cpu time spent up to now is        5.1 secs

     total energy              =    -183.31567885 Ry
     estimated scf accuracy    <       0.00024925 Ry

     iteration #  8     ecut=    70.00 Ry     beta= 0.70
     Davidson diagonalization with overlap
     ethr =  1.51E-07,  avg # of iterations =  2.1

     total cpu time spent up to now is        5.5 secs

     total energy              =    -183.31564905 Ry
     estimated scf accuracy    <       0.00016849 Ry

     iteration #  9     ecut=    70.00 Ry     beta= 0.70
     Davidson diagonalization with overlap
     ethr =  1.51E-07,  avg # of iterations =  2.7

     total cpu time spent up to now is        5.9 secs

     total energy              =    -183.31564489 Ry
     estimated scf accuracy    <       0.00007424 Ry

     iteration # 10     ecut=    70.00 Ry     beta= 0.70
     Davidson diagonalization with overlap
     ethr =  1.51E-07,  avg # of iterations =  1.8

     total cpu time spent up to now is        6.4 secs

     total energy              =    -183.31564391 Ry
     estimated scf accuracy    <       0.00004301 Ry

     iteration # 11     ecut=    70.00 Ry     beta= 0.70
     Davidson diagonalization with overlap
     ethr =  1.51E-07,  avg # of iterations =  1.3

     total cpu time spent up to now is        6.8 secs

     total energy              =    -183.31563598 Ry
     estimated scf accuracy    <       0.00003031 Ry

     iteration # 12     ecut=    70.00 Ry     beta= 0.70
     Davidson diagonalization with overlap
     ethr =  1.51E-07,  avg # of iterations =  2.5

     total cpu time spent up to now is        7.2 secs

     total energy              =    -183.31563702 Ry
     estimated scf accuracy    <       0.00000651 Ry

     iteration # 13     ecut=    70.00 Ry     beta= 0.70
     Davidson diagonalization with overlap
     ethr =  4.07E-08,  avg # of iterations =  2.0

     total cpu time spent up to now is        7.7 secs

     total energy              =    -183.31563711 Ry
     estimated scf accuracy    <       0.00000201 Ry

     iteration # 14     ecut=    70.00 Ry     beta= 0.70
     Davidson diagonalization with overlap
     ethr =  1.26E-08,  avg # of iterations =  3.0

     total cpu time spent up to now is        8.1 secs

     total energy              =    -183.31563744 Ry
     estimated scf accuracy    <       0.00000019 Ry

     iteration # 15     ecut=    70.00 Ry     beta= 0.70
     Davidson diagonalization with overlap
     ethr =  1.16E-09,  avg # of iterations =  3.2

     total cpu time spent up to now is        8.6 secs

     total energy              =    -183.31563741 Ry
     estimated scf accuracy    <       0.00000014 Ry

     iteration # 16     ecut=    70.00 Ry     beta= 0.70
     Davidson diagonalization with overlap
     ethr =  8.70E-10,  avg # of iterations =  2.1

     total cpu time spent up to now is        9.0 secs

     End of self-consistent calculation

          k = 0.0000 0.0000 0.0000 (  1243 PWs)   bands (ev):

   -64.4934 -31.2117 -31.2117 -31.2117  -9.4407   7.8148   7.8148   7.8148
    12.5687  23.6620  23.6620  23.6620

          k = 0.1414 0.1414-0.1414 (  1254 PWs)   bands (ev):

   -64.4903 -31.2421 -31.2149 -31.2149  -9.0331   5.8450   7.5764   7.5764
    14.3921  20.8837  24.3879  24.3879

          k = 0.2828 0.2828-0.2828 (  1251 PWs)   bands (ev):

   -64.4855 -31.2901 -31.2199 -31.2199  -8.2713   3.5581   7.2198   7.2198
    15.6873  20.2813  24.3047  24.3047

          k = 0.2828 0.0000 0.0000 (  1263 PWs)   bands (ev):

   -64.4894 -31.2397 -31.2219 -31.2219  -8.9167   5.7927   7.2920   7.2920
    15.0514  19.8951  24.6410  24.8384

          k = 0.4243 0.1414-0.1414 (  1252 PWs)   bands (ev):

   -64.4851 -31.2735 -31.2307 -31.2280  -8.3000   4.2760   6.5761   6.9450
    16.8464  19.1575  22.2477  25.2743

          k =-0.1414-0.4243 0.4243 (  1242 PWs)   bands (ev):

   -64.4835 -31.2850 -31.2412 -31.2248  -8.0169   3.7759   5.9276   6.9883
    17.2691  20.1114  21.5878  25.0436

          k = 0.0000-0.2828 0.2828 (  1251 PWs)   bands (ev):

   -64.4867 -31.2639 -31.2337 -31.2168  -8.5160   4.7201   6.4851   7.3713
    16.2856  19.7480  22.9852  25.6865

          k = 0.5657 0.0000 0.0000 (  1246 PWs)   bands (ev):

   -64.4829 -31.2786 -31.2381 -31.2381  -8.0523   3.9794   6.5811   6.5811
    17.2963  17.6935  21.0812  26.5437

          k = 0.0000-0.5657 0.5657 (  1248 PWs)   bands (ev):

   -64.4819 -31.2767 -31.2539 -31.2362  -7.8749   4.1334   5.4821   6.6044
    17.7152  19.1121  20.5494  26.1492

          k =-0.1414-0.4243 0.7071 (  1231 PWs)   bands (ev):

   -64.4825 -31.2725 -31.2525 -31.2351  -7.9335   4.3372   5.4509   6.4361
    18.9121  18.9878  20.5432  24.3744

     the Fermi energy is    11.1749 ev

!    total energy              =    -183.31563744 Ry
     total all-electron energy =      -551.432796 Ry
     estimated scf accuracy    <          1.0E-09 Ry
     smearing contrib. (-TS)   =       0.00000000 Ry
     internal energy E=F+TS    =    -183.31563744 Ry

     The total energy is F=E-TS. E is the sum of the following terms:
     one-electron contribution =     -87.99600348 Ry
     hartree contribution      =      49.34658691 Ry
     xc contribution           =     -25.31603154 Ry
     ewald contribution        =     -94.81311934 Ry
     one-center paw contrib.   =     -24.53706999 Ry

     convergence has been achieved in  16 iterations

     Forces acting on atoms (cartesian axes, Ry/au):

     atom    1 type  1   force =     0.00000000   -0.00000000    0.00000000
     atom    2 type  2   force =    -0.00000000    0.00000000   -0.00000000

     Total force =     0.000000     Total SCF correction =     0.000000


     Computing stress (Cartesian axis) and pressure

          total   stress  (Ry/bohr**3)                   (kbar)     P=       36.62
   0.00024896  -0.00000000  -0.00000000           36.62       -0.00       -0.00
  -0.00000000   0.00024896  -0.00000000           -0.00       36.62       -0.00
  -0.00000000  -0.00000000   0.00024896           -0.00       -0.00       36.62


     BFGS Geometry Optimization
     Energy error            =      0.0E+00 Ry
     Gradient error          =      1.2E-32 Ry/Bohr

     bfgs converged in   1 scf cycles and   0 bfgs steps
     (criteria: energy <  1.0E-04 Ry, force <  1.0E-03 Ry/Bohr)

     End of BFGS Geometry Optimization

     Final energy             =    -183.3156374377 Ry
Begin final coordinates

ATOMIC_POSITIONS (angstrom)
Mg            0.0000000000        0.0000000000        0.0000000000
O             2.1050000000        0.0000000000        0.0000000000
End final coordinates



     init_run     :      1.03s CPU      1.14s WALL (       1 calls)
     electrons    :      6.99s CPU      7.51s WALL (       1 calls)
     forces       :      0.11s CPU      0.12s WALL (       1 calls)
     stress       :      0.38s CPU      0.41s WALL (       1 calls)

     Called by init_run:
     wfcinit      :      0.10s CPU      0.10s WALL (       1 calls)
     potinit      :      0.25s CPU      0.27s WALL (       1 calls)
     hinit0       :      0.49s CPU      0.54s WALL (       1 calls)

     Called by electrons:
     c_bands      :      3.90s CPU      4.19s WALL (      16 calls)
     sum_band     :      1.14s CPU      1.24s WALL (      16 calls)
     v_of_rho     :      0.67s CPU      0.72s WALL (      17 calls)
     newd         :      0.32s CPU      0.38s WALL (      17 calls)
     PAW_pot      :      0.92s CPU      0.96s WALL (      17 calls)
     mix_rho      :      0.08s CPU      0.09s WALL (      16 calls)

     Called by c_bands:
     init_us_2    :      0.09s CPU      0.10s WALL (     350 calls)
     init_us_2:cp :      0.09s CPU      0.10s WALL (     350 calls)
     cegterg      :      3.77s CPU      4.03s WALL (     160 calls)

     Called by *egterg:
     cdiaghg      :      0.19s CPU      0.21s WALL (     663 calls)
     h_psi        :      3.19s CPU      3.41s WALL (     673 calls)
     s_psi        :      0.05s CPU      0.05s WALL (     673 calls)
     g_psi        :      0.02s CPU      0.02s WALL (     503 calls)

     Called by h_psi:
     h_psi:calbec :      0.09s CPU      0.10s WALL (     673 calls)
     vloc_psi     :      3.01s CPU      3.22s WALL (     673 calls)
     add_vuspsi   :      0.06s CPU      0.06s WALL (     673 calls)

     General routines
     calbec       :      0.12s CPU      0.13s WALL (     883 calls)
     fft          :      0.54s CPU      0.61s WALL (     244 calls)
     ffts         :      0.14s CPU      0.14s WALL (      33 calls)
     fftw         :      3.23s CPU      3.44s WALL (   11560 calls)
     interpolate  :      0.17s CPU      0.18s WALL (      17 calls)

     Parallel routines

     PWSCF        :      8.84s CPU      9.56s WALL


   This run was terminated on:   2:31:16   7May2024            

=------------------------------------------------------------------------------=
   JOB DONE.
=------------------------------------------------------------------------------=
