
     Program PWSCF v.7.1 starts on  6May2024 at  3: 1:19 

     This program is part of the open-source Quantum ESPRESSO suite
     for quantum simulation of materials; please cite
         "P. Giannozzi et al., J. Phys.:Condens. Matter 21 395502 (2009);
         "P. Giannozzi et al., J. Phys.:Condens. Matter 29 465901 (2017);
         "P. Giannozzi et al., J. Chem. Phys. 152 154105 (2020);
          URL http://www.quantum-espresso.org", 
     in publications or presentations arising from this work. More details at
     http://www.quantum-espresso.org/quote

     Parallel version (MPI), running on     2 processors

     MPI processes distributed on     1 nodes
     13798 MiB available memory on the printing compute node when the environment starts

     Waiting for input...
     Reading input from standard input
Warning: card &CELL ignored
Warning: card / ignored

     Current dimensions of program PWSCF are:
     Max number of different atomic species (ntypx) = 10
     Max number of k-points (npk) =  40000
     Max angular momentum in pseudopotentials (lmaxx) =  4
     file Ba.pbe-spn-kjpaw_psl.1.0.0.UPF: wavefunction(s)  5S 6S renormalized
     file Bi.pbe-dn-kjpaw_psl.1.0.0.UPF: wavefunction(s)  6P 5D renormalized
     file O.pbe-n-kjpaw_psl.1.0.0.UPF: wavefunction(s)  2S 2P renormalized
     Message from routine setup:
     using ibrav=0 with symmetry is DISCOURAGED, use correct ibrav instead

     R & G space division:  proc/nbgrp/npool/nimage =       2
     Subspace diagonalization in iterative solution of the eigenvalue problem:
     a serial algorithm will be used


     Parallelization info
     --------------------
     sticks:   dense  smooth     PW     G-vecs:    dense   smooth      PW
     Min        1586     798    218                67364    23916    3560
     Max        1587     799    219                67367    23917    3563
     Sum        3173    1597    437               134731    47833    7123

     Using Slab Decomposition



     bravais-lattice index     =            0
     lattice parameter (alat)  =       8.4471  a.u.
     unit-cell volume          =     602.7250 (a.u.)^3
     number of atoms/cell      =            5
     number of atomic types    =            3
     number of electrons       =        43.00
     number of Kohn-Sham states=           26
     kinetic-energy cutoff     =      70.0000  Ry
     charge density cutoff     =     560.0000  Ry
     scf convergence threshold =      1.0E-07
     mixing beta               =       0.7000
     number of iterations used =            8  plain     mixing
     Exchange-correlation= SLA  PW   PBX  PBC
                           (   1   4   3   4   0   0   0)

     celldm(1)=   8.447076  celldm(2)=   0.000000  celldm(3)=   0.000000
     celldm(4)=   0.000000  celldm(5)=   0.000000  celldm(6)=   0.000000

     crystal axes: (cart. coord. in units of alat)
               a(1) = (   1.000000   0.000000   0.000000 )  
               a(2) = (   0.000000   1.000000   0.000000 )  
               a(3) = (   0.000000   0.000000   1.000000 )  

     reciprocal axes: (cart. coord. in units 2 pi/alat)
               b(1) = (  1.000000  0.000000  0.000000 )  
               b(2) = (  0.000000  1.000000  0.000000 )  
               b(3) = (  0.000000  0.000000  1.000000 )  


     PseudoPot. # 1 for Ba read from file:
     /home/bond/Software/qe-7.1/pseudo/Ba.pbe-spn-kjpaw_psl.1.0.0.UPF
     MD5 check sum: 7cfe25f1fe7574a4710541d5a11d6531
     Pseudo is Projector augmented-wave + core cor, Zval = 10.0
     Generated using &quot;atomic&quot; code by A. Dal Corso  v.6.2.2
     Shape of augmentation charge: PSQ
     Using radial grid of 1251 points,  7 beta functions with: 
                l(1) =   0
                l(2) =   0
                l(3) =   0
                l(4) =   1
                l(5) =   1
                l(6) =   2
                l(7) =   2
     Q(r) pseudized with 0 coefficients 


     PseudoPot. # 2 for Bi read from file:
     /home/bond/Software/qe-7.1/pseudo/Bi.pbe-dn-kjpaw_psl.1.0.0.UPF
     MD5 check sum: 266ded784ae3bc462508ed03f0f37963
     Pseudo is Projector augmented-wave + core cor, Zval = 15.0
     Generated using &quot;atomic&quot; code by A. Dal Corso  v.6.2.2
     Shape of augmentation charge: PSQ
     Using radial grid of 1283 points,  6 beta functions with: 
                l(1) =   0
                l(2) =   0
                l(3) =   1
                l(4) =   1
                l(5) =   2
                l(6) =   2
     Q(r) pseudized with 0 coefficients 


     PseudoPot. # 3 for O  read from file:
     /home/bond/Software/qe-7.1/pseudo/O.pbe-n-kjpaw_psl.1.0.0.UPF
     MD5 check sum: e99d9cef9b487d1ca56f5b95ecd0fd7a
     Pseudo is Projector augmented-wave + core cor, Zval =  6.0
     Generated using &quot;atomic&quot; code by A. Dal Corso  v.6.3
     Shape of augmentation charge: PSQ
     Using radial grid of 1095 points,  4 beta functions with: 
                l(1) =   0
                l(2) =   0
                l(3) =   1
                l(4) =   1
     Q(r) pseudized with 0 coefficients 


     atomic species   valence    mass     pseudopotential
        Ba            10.00   137.32700     Ba( 1.00)
        Bi            15.00   208.98040     Bi( 1.00)
        O              6.00    15.99900     O ( 1.00)

     48 Sym. Ops., with inversion, found



   Cartesian axes

     site n.     atom                  positions (alat units)
         1           Ba  tau(   1) = (   0.5000000   0.5000000   0.5000000  )
         2           Bi  tau(   2) = (   0.0000000   0.0000000   0.0000000  )
         3           O   tau(   3) = (   0.0000000   0.0000000   0.5000000  )
         4           O   tau(   4) = (   0.5000000   0.0000000   0.0000000  )
         5           O   tau(   5) = (   0.0000000   0.5000000   0.0000000  )

     number of k points=    10  Methfessel-Paxton smearing, width (Ry)=  0.0200
                       cart. coord. in units 2pi/alat
        k(    1) = (   0.0000000   0.0000000   0.0000000), wk =   0.0160000
        k(    2) = (   0.0000000   0.0000000   0.2000000), wk =   0.0960000
        k(    3) = (   0.0000000   0.0000000   0.4000000), wk =   0.0960000
        k(    4) = (   0.0000000   0.2000000   0.2000000), wk =   0.1920000
        k(    5) = (   0.0000000   0.2000000   0.4000000), wk =   0.3840000
        k(    6) = (   0.0000000   0.4000000   0.4000000), wk =   0.1920000
        k(    7) = (   0.2000000   0.2000000   0.2000000), wk =   0.1280000
        k(    8) = (   0.2000000   0.2000000   0.4000000), wk =   0.3840000
        k(    9) = (   0.2000000   0.4000000   0.4000000), wk =   0.3840000
        k(   10) = (   0.4000000   0.4000000   0.4000000), wk =   0.1280000

     Dense  grid:   134731 G-vectors     FFT dimensions: (  64,  64,  64)

     Smooth grid:    47833 G-vectors     FFT dimensions: (  45,  45,  45)

     Estimated max dynamical RAM per process >     290.31 MB

     Estimated total dynamical RAM >     580.62 MB

     Initial potential from superposition of free atoms

     starting charge      42.9822, renormalised to      43.0000
     Starting wfcs are   26 randomized atomic wfcs
     Checking if some PAW data can be deallocated... 

     total cpu time spent up to now is        5.5 secs

     Self-consistent Calculation

     iteration #  1     ecut=    70.00 Ry     beta= 0.70
     Davidson diagonalization with overlap
     ethr =  1.00E-02,  avg # of iterations =  2.7

     total cpu time spent up to now is       10.6 secs

     total energy              =   -1466.63104418 Ry
     estimated scf accuracy    <       1.77942956 Ry

     iteration #  2     ecut=    70.00 Ry     beta= 0.70
     Davidson diagonalization with overlap
     ethr =  4.14E-03,  avg # of iterations =  7.4

     total cpu time spent up to now is       17.6 secs

     total energy              =   -1467.01096254 Ry
     estimated scf accuracy    <       4.46412948 Ry

     iteration #  3     ecut=    70.00 Ry     beta= 0.70
     Davidson diagonalization with overlap
     ethr =  4.14E-03,  avg # of iterations =  2.8

     total cpu time spent up to now is       22.6 secs

     total energy              =   -1467.38719039 Ry
     estimated scf accuracy    <       0.39454229 Ry

     iteration #  4     ecut=    70.00 Ry     beta= 0.70
     Davidson diagonalization with overlap
     ethr =  9.18E-04,  avg # of iterations =  5.9

     total cpu time spent up to now is       28.7 secs

     total energy              =   -1467.76480071 Ry
     estimated scf accuracy    <       0.22305081 Ry

     iteration #  5     ecut=    70.00 Ry     beta= 0.70
     Davidson diagonalization with overlap
     ethr =  5.19E-04,  avg # of iterations =  3.6

     total cpu time spent up to now is       33.5 secs

     total energy              =   -1467.73203175 Ry
     estimated scf accuracy    <       0.08538154 Ry

     iteration #  6     ecut=    70.00 Ry     beta= 0.70
     Davidson diagonalization with overlap
     ethr =  1.99E-04,  avg # of iterations =  6.2

     total cpu time spent up to now is       39.3 secs

     total energy              =   -1467.76780763 Ry
     estimated scf accuracy    <       0.00858218 Ry

     iteration #  7     ecut=    70.00 Ry     beta= 0.70
     Davidson diagonalization with overlap
     c_bands:  1 eigenvalues not converged
     c_bands:  1 eigenvalues not converged
     ethr =  2.00E-05,  avg # of iterations = 12.5

     total cpu time spent up to now is       45.7 secs

     total energy              =   -1467.76475464 Ry
     estimated scf accuracy    <       0.01994120 Ry

     iteration #  8     ecut=    70.00 Ry     beta= 0.70
     Davidson diagonalization with overlap
     ethr =  2.00E-05,  avg # of iterations =  2.4

     total cpu time spent up to now is       50.4 secs

     total energy              =   -1467.76328180 Ry
     estimated scf accuracy    <       0.00693945 Ry

     iteration #  9     ecut=    70.00 Ry     beta= 0.70
     Davidson diagonalization with overlap
     ethr =  1.61E-05,  avg # of iterations =  3.5

     total cpu time spent up to now is       55.4 secs

     total energy              =   -1467.76439712 Ry
     estimated scf accuracy    <       0.00048060 Ry

     iteration # 10     ecut=    70.00 Ry     beta= 0.70
     Davidson diagonalization with overlap
     c_bands:  1 eigenvalues not converged
     ethr =  1.12E-06,  avg # of iterations = 10.1

     total cpu time spent up to now is       62.6 secs

     total energy              =   -1467.76517481 Ry
     estimated scf accuracy    <       0.00072359 Ry

     iteration # 11     ecut=    70.00 Ry     beta= 0.70
     Davidson diagonalization with overlap
     ethr =  1.12E-06,  avg # of iterations =  3.3

     total cpu time spent up to now is       67.4 secs

     total energy              =   -1467.76519540 Ry
     estimated scf accuracy    <       0.00038672 Ry

     iteration # 12     ecut=    70.00 Ry     beta= 0.70
     Davidson diagonalization with overlap
     ethr =  8.99E-07,  avg # of iterations =  1.0

     total cpu time spent up to now is       72.2 secs

     total energy              =   -1467.76516618 Ry
     estimated scf accuracy    <       0.00039458 Ry

     iteration # 13     ecut=    70.00 Ry     beta= 0.70
     Davidson diagonalization with overlap
     ethr =  8.99E-07,  avg # of iterations =  1.1

     total cpu time spent up to now is       77.3 secs

     total energy              =   -1467.76514359 Ry
     estimated scf accuracy    <       0.00029779 Ry

     iteration # 14     ecut=    70.00 Ry     beta= 0.70
     Davidson diagonalization with overlap
     ethr =  6.93E-07,  avg # of iterations =  1.4

     total cpu time spent up to now is       81.9 secs

     total energy              =   -1467.76517270 Ry
     estimated scf accuracy    <       0.00018471 Ry

     iteration # 15     ecut=    70.00 Ry     beta= 0.70
     Davidson diagonalization with overlap
     ethr =  4.30E-07,  avg # of iterations =  1.1

     total cpu time spent up to now is       86.6 secs

     total energy              =   -1467.76514917 Ry
     estimated scf accuracy    <       0.00024201 Ry

     iteration # 16     ecut=    70.00 Ry     beta= 0.70
     Davidson diagonalization with overlap
     ethr =  4.30E-07,  avg # of iterations =  1.2

     total cpu time spent up to now is       91.4 secs

     total energy              =   -1467.76509837 Ry
     estimated scf accuracy    <       0.00017045 Ry

     iteration # 17     ecut=    70.00 Ry     beta= 0.70
     Davidson diagonalization with overlap
     ethr =  3.96E-07,  avg # of iterations =  1.8

     total cpu time spent up to now is       96.2 secs

     total energy              =   -1467.76514455 Ry
     estimated scf accuracy    <       0.00004282 Ry

     iteration # 18     ecut=    70.00 Ry     beta= 0.70
     Davidson diagonalization with overlap
     ethr =  9.96E-08,  avg # of iterations =  2.0

     total cpu time spent up to now is      101.7 secs

     total energy              =   -1467.76510073 Ry
     estimated scf accuracy    <       0.00014987 Ry

     iteration # 19     ecut=    70.00 Ry     beta= 0.70
     Davidson diagonalization with overlap
     ethr =  9.96E-08,  avg # of iterations =  4.6

     total cpu time spent up to now is      107.3 secs

     total energy              =   -1467.76510726 Ry
     estimated scf accuracy    <       0.00001866 Ry

     iteration # 20     ecut=    70.00 Ry     beta= 0.70
     Davidson diagonalization with overlap
     ethr =  4.34E-08,  avg # of iterations =  5.0

     total cpu time spent up to now is      113.5 secs

     total energy              =   -1467.76511716 Ry
     estimated scf accuracy    <       0.00000401 Ry

     iteration # 21     ecut=    70.00 Ry     beta= 0.70
     Davidson diagonalization with overlap
     ethr =  9.34E-09,  avg # of iterations =  3.2

     total cpu time spent up to now is      118.7 secs

     total energy              =   -1467.76511776 Ry
     estimated scf accuracy    <       0.00000078 Ry

     iteration # 22     ecut=    70.00 Ry     beta= 0.70
     Davidson diagonalization with overlap
     ethr =  1.82E-09,  avg # of iterations =  4.3

     total cpu time spent up to now is      124.2 secs

     total energy              =   -1467.76511800 Ry
     estimated scf accuracy    <       0.00000022 Ry

     iteration # 23     ecut=    70.00 Ry     beta= 0.70
     Davidson diagonalization with overlap
     ethr =  5.20E-10,  avg # of iterations =  2.9

     total cpu time spent up to now is      129.1 secs

     total energy              =   -1467.76511800 Ry
     estimated scf accuracy    <       0.00000012 Ry

     iteration # 24     ecut=    70.00 Ry     beta= 0.70
     Davidson diagonalization with overlap
     ethr =  2.73E-10,  avg # of iterations =  2.7

     total cpu time spent up to now is      134.6 secs

     End of self-consistent calculation

          k = 0.0000 0.0000 0.0000 (  6031 PWs)   bands (ev):

   -17.7536 -13.5545 -13.5545 -13.2266 -13.2266 -13.2266  -9.0713  -6.8989
    -6.8989  -2.8534  -2.8534  -2.8534   2.6304   3.8008   3.8008   3.8008
     7.3585   7.3585   7.3585   7.5550   7.5550   7.5550  12.6257  12.6257
    13.5323  14.4992

          k = 0.0000 0.0000 0.2000 (  5967 PWs)   bands (ev):

   -17.7466 -13.5541 -13.5064 -13.2291 -13.2291 -13.2265  -8.9764  -7.1816
    -6.8951  -2.8308  -2.8308  -2.8180   1.4954   3.8116   3.8116   5.3270
     7.1794   7.2765   7.2765   7.4801   7.4801   7.6576  13.0629  13.0740
    14.1852  14.7934

          k = 0.0000 0.0000 0.4000 (  5962 PWs)   bands (ev):

   -17.7352 -13.5536 -13.4268 -13.2331 -13.2331 -13.2263  -8.7052  -7.7510
    -6.8891  -2.7937  -2.7937  -2.7750   0.7286   3.8231   3.8231   6.0971
     6.9248   7.2007   7.2007   7.3249   7.3249   8.8916  13.6510  13.7996
    14.7574  15.2081

          k = 0.0000 0.2000 0.2000 (  5964 PWs)   bands (ev):

   -17.7401 -13.5305 -13.4806 -13.2313 -13.2290 -13.2289  -8.8795  -7.2851
    -7.0454  -2.8570  -2.8113  -2.7839   0.6890   3.8500   4.7130   5.5886
     6.8908   7.1852   7.3651   7.3878   7.6571   7.8028  13.3451  13.5639
    14.4182  14.8702

          k = 0.0000 0.2000 0.4000 (  5958 PWs)   bands (ev):

   -17.7296 -13.5224 -13.4066 -13.2349 -13.2329 -13.2287  -8.5994  -7.7701
    -7.0946  -2.8425  -2.7973  -2.7793  -0.0159   3.9100   5.0520   6.0450
     6.7796   7.0933   7.2006   7.2970   7.6321   9.1200  13.8694  14.1303
    14.8235  15.0202

          k = 0.0000 0.4000 0.4000 (  5978 PWs)   bands (ev):

   -17.7205 -13.4930 -13.3502 -13.2378 -13.2327 -13.2326  -8.2905  -7.8542
    -7.5232  -2.8877  -2.8630  -2.7558  -0.7289   4.0624   5.9013   6.5272
     6.8264   6.9338   6.9862   7.3490   7.9570  10.0651  13.9802  14.0734
    14.5652  14.6317

          k = 0.2000 0.2000 0.2000 (  5953 PWs)   bands (ev):

   -17.7340 -13.4803 -13.4803 -13.2314 -13.2314 -13.2309  -8.7844  -7.2742
    -7.2742  -2.8637  -2.8637  -2.7483  -0.0009   4.7467   4.7467   5.7293
     6.8857   6.8857   7.5928   7.5928   7.6007   7.9328  13.6755  13.6755
    14.4065  14.8771

          k = 0.2000 0.2000 0.4000 (  5969 PWs)   bands (ev):

   -17.7242 -13.4799 -13.3969 -13.2356 -13.2345 -13.2312  -8.5061  -7.7743
    -7.2565  -2.8749  -2.8698  -2.7783  -0.6825   4.7986   5.3703   6.0805
     6.6848   6.9106   7.4514   7.4745   7.7017   9.2800  13.6594  14.1062
    14.6428  14.7357

          k = 0.2000 0.4000 0.4000 (  5955 PWs)   bands (ev):

   -17.7153 -13.4396 -13.3501 -13.2385 -13.2353 -13.2351  -8.2324  -7.8357
    -7.5995  -2.9322  -2.9232  -2.8308  -1.3951   5.1744   6.1038   6.5456
     6.6521   6.8810   7.4453   7.5844   7.9726  10.1577  13.2585  13.3547
    13.9312  14.9200

          k = 0.4000 0.4000 0.4000 (  5968 PWs)   bands (ev):

   -17.7069 -13.3499 -13.3499 -13.2397 -13.2397 -13.2390  -8.0639  -7.8053
    -7.8053  -3.0043  -3.0043  -2.9597  -2.1703   6.4221   6.5905   6.5905
     6.8411   6.8411   7.9130   7.9130   8.0259  10.7080  12.3853  12.3853
    12.9380  15.9661

     the Fermi energy is     9.2414 ev

!    total energy              =   -1467.76511800 Ry
     total all-electron energy =    -59784.856901 Ry
     estimated scf accuracy    <       0.00000002 Ry
     smearing contrib. (-TS)   =      -0.00143230 Ry
     internal energy E=F+TS    =   -1467.76368569 Ry

     The total energy is F=E-TS. E is the sum of the following terms:
     one-electron contribution =     -87.04077345 Ry
     hartree contribution      =      74.55572619 Ry
     xc contribution           =     -75.19900498 Ry
     ewald contribution        =    -219.77622735 Ry
     one-center paw contrib.   =   -1160.30340610 Ry

     convergence has been achieved in  24 iterations

     Forces acting on atoms (cartesian axes, Ry/au):

     atom    1 type  1   force =     0.00000000    0.00000000    0.00000000
     atom    2 type  2   force =     0.00000000    0.00000000    0.00000000
     atom    3 type  3   force =     0.00000000    0.00000000    0.00000000
     atom    4 type  3   force =     0.00000000    0.00000000    0.00000000
     atom    5 type  3   force =     0.00000000    0.00000000    0.00000000

     Total force =     0.000000     Total SCF correction =     0.000000


     Computing stress (Cartesian axis) and pressure

          total   stress  (Ry/bohr**3)                   (kbar)     P=      -31.17
  -0.00021191   0.00000000   0.00000000          -31.17        0.00        0.00
   0.00000000  -0.00021191   0.00000000            0.00      -31.17        0.00
   0.00000000   0.00000000  -0.00021191            0.00        0.00      -31.17


     init_run     :      3.65s CPU      4.37s WALL (       1 calls)
     electrons    :    108.98s CPU    129.12s WALL (       1 calls)
     forces       :      1.34s CPU      1.60s WALL (       1 calls)
     stress       :      7.18s CPU      8.48s WALL (       1 calls)

     Called by init_run:
     wfcinit      :      0.89s CPU      0.98s WALL (       1 calls)
     potinit      :      0.82s CPU      0.96s WALL (       1 calls)
     hinit0       :      1.33s CPU      1.48s WALL (       1 calls)

     Called by electrons:
     c_bands      :     57.77s CPU     62.91s WALL (      24 calls)
     sum_band     :     23.73s CPU     31.71s WALL (      24 calls)
     v_of_rho     :      2.80s CPU      3.07s WALL (      25 calls)
     newd         :     11.78s CPU     17.79s WALL (      25 calls)
     PAW_pot      :     13.18s CPU     14.24s WALL (      25 calls)
     mix_rho      :      0.53s CPU      0.58s WALL (      24 calls)

     Called by c_bands:
     init_us_2    :      1.34s CPU      1.48s WALL (     510 calls)
     init_us_2:cp :      1.34s CPU      1.48s WALL (     510 calls)
     cegterg      :     54.71s CPU     59.56s WALL (     240 calls)

     Called by *egterg:
     cdiaghg      :      1.45s CPU      1.58s WALL (    1167 calls)
     h_psi        :     43.88s CPU     47.77s WALL (    1177 calls)
     s_psi        :      2.06s CPU      2.24s WALL (    1177 calls)
     g_psi        :      0.25s CPU      0.27s WALL (     927 calls)

     Called by h_psi:
     h_psi:calbec :      2.34s CPU      2.53s WALL (    1177 calls)
     vloc_psi     :     39.02s CPU     42.50s WALL (    1177 calls)
     add_vuspsi   :      2.29s CPU      2.48s WALL (    1177 calls)

     General routines
     calbec       :      3.26s CPU      3.52s WALL (    1467 calls)
     fft          :      1.75s CPU      1.93s WALL (     348 calls)
     ffts         :      0.19s CPU      0.21s WALL (      49 calls)
     fftw         :     42.01s CPU     45.79s WALL (   38436 calls)
     interpolate  :      0.27s CPU      0.30s WALL (      25 calls)

     Parallel routines

     PWSCF        :   2m 2.10s CPU   2m24.68s WALL


   This run was terminated on:   3: 3:44   6May2024            

=------------------------------------------------------------------------------=
   JOB DONE.
=------------------------------------------------------------------------------=
