
     Program PWSCF v.7.1 starts on  6May2024 at  3: 7:45 

     This program is part of the open-source Quantum ESPRESSO suite
     for quantum simulation of materials; please cite
         "P. Giannozzi et al., J. Phys.:Condens. Matter 21 395502 (2009);
         "P. Giannozzi et al., J. Phys.:Condens. Matter 29 465901 (2017);
         "P. Giannozzi et al., J. Chem. Phys. 152 154105 (2020);
          URL http://www.quantum-espresso.org", 
     in publications or presentations arising from this work. More details at
     http://www.quantum-espresso.org/quote

     Parallel version (MPI), running on     2 processors

     MPI processes distributed on     1 nodes
     13619 MiB available memory on the printing compute node when the environment starts

     Waiting for input...
     Reading input from standard input
Warning: card &CELL ignored
Warning: card / ignored

     Current dimensions of program PWSCF are:
     Max number of different atomic species (ntypx) = 10
     Max number of k-points (npk) =  40000
     Max angular momentum in pseudopotentials (lmaxx) =  4
     file Ba.pbe-spn-kjpaw_psl.1.0.0.UPF: wavefunction(s)  5S 6S renormalized
     file Bi.pbe-dn-kjpaw_psl.1.0.0.UPF: wavefunction(s)  6P 5D renormalized
     file O.pbe-n-kjpaw_psl.1.0.0.UPF: wavefunction(s)  2S 2P renormalized
     Message from routine setup:
     using ibrav=0 with symmetry is DISCOURAGED, use correct ibrav instead

     R & G space division:  proc/nbgrp/npool/nimage =       2
     Subspace diagonalization in iterative solution of the eigenvalue problem:
     a serial algorithm will be used


     Parallelization info
     --------------------
     sticks:   dense  smooth     PW     G-vecs:    dense   smooth      PW
     Min        1616     804    219                68772    24250    3576
     Max        1617     805    222                68773    24251    3577
     Sum        3233    1609    441               137545    48501    7153

     Using Slab Decomposition



     bravais-lattice index     =            0
     lattice parameter (alat)  =       8.5038  a.u.
     unit-cell volume          =     614.9420 (a.u.)^3
     number of atoms/cell      =            5
     number of atomic types    =            3
     number of electrons       =        43.00
     number of Kohn-Sham states=           26
     kinetic-energy cutoff     =      70.0000  Ry
     charge density cutoff     =     560.0000  Ry
     scf convergence threshold =      1.0E-07
     mixing beta               =       0.7000
     number of iterations used =            8  plain     mixing
     Exchange-correlation= SLA  PW   PBX  PBC
                           (   1   4   3   4   0   0   0)

     celldm(1)=   8.503768  celldm(2)=   0.000000  celldm(3)=   0.000000
     celldm(4)=   0.000000  celldm(5)=   0.000000  celldm(6)=   0.000000

     crystal axes: (cart. coord. in units of alat)
               a(1) = (   1.000000   0.000000   0.000000 )  
               a(2) = (   0.000000   1.000000   0.000000 )  
               a(3) = (   0.000000   0.000000   1.000000 )  

     reciprocal axes: (cart. coord. in units 2 pi/alat)
               b(1) = (  1.000000  0.000000  0.000000 )  
               b(2) = (  0.000000  1.000000  0.000000 )  
               b(3) = (  0.000000  0.000000  1.000000 )  


     PseudoPot. # 1 for Ba read from file:
     /home/bond/Software/qe-7.1/pseudo/Ba.pbe-spn-kjpaw_psl.1.0.0.UPF
     MD5 check sum: 7cfe25f1fe7574a4710541d5a11d6531
     Pseudo is Projector augmented-wave + core cor, Zval = 10.0
     Generated using &quot;atomic&quot; code by A. Dal Corso  v.6.2.2
     Shape of augmentation charge: PSQ
     Using radial grid of 1251 points,  7 beta functions with: 
                l(1) =   0
                l(2) =   0
                l(3) =   0
                l(4) =   1
                l(5) =   1
                l(6) =   2
                l(7) =   2
     Q(r) pseudized with 0 coefficients 


     PseudoPot. # 2 for Bi read from file:
     /home/bond/Software/qe-7.1/pseudo/Bi.pbe-dn-kjpaw_psl.1.0.0.UPF
     MD5 check sum: 266ded784ae3bc462508ed03f0f37963
     Pseudo is Projector augmented-wave + core cor, Zval = 15.0
     Generated using &quot;atomic&quot; code by A. Dal Corso  v.6.2.2
     Shape of augmentation charge: PSQ
     Using radial grid of 1283 points,  6 beta functions with: 
                l(1) =   0
                l(2) =   0
                l(3) =   1
                l(4) =   1
                l(5) =   2
                l(6) =   2
     Q(r) pseudized with 0 coefficients 


     PseudoPot. # 3 for O  read from file:
     /home/bond/Software/qe-7.1/pseudo/O.pbe-n-kjpaw_psl.1.0.0.UPF
     MD5 check sum: e99d9cef9b487d1ca56f5b95ecd0fd7a
     Pseudo is Projector augmented-wave + core cor, Zval =  6.0
     Generated using &quot;atomic&quot; code by A. Dal Corso  v.6.3
     Shape of augmentation charge: PSQ
     Using radial grid of 1095 points,  4 beta functions with: 
                l(1) =   0
                l(2) =   0
                l(3) =   1
                l(4) =   1
     Q(r) pseudized with 0 coefficients 


     atomic species   valence    mass     pseudopotential
        Ba            10.00   137.32700     Ba( 1.00)
        Bi            15.00   208.98040     Bi( 1.00)
        O              6.00    15.99900     O ( 1.00)

     48 Sym. Ops., with inversion, found



   Cartesian axes

     site n.     atom                  positions (alat units)
         1           Ba  tau(   1) = (   0.5000000   0.5000000   0.5000000  )
         2           Bi  tau(   2) = (   0.0000000   0.0000000   0.0000000  )
         3           O   tau(   3) = (   0.0000000   0.0000000   0.5000000  )
         4           O   tau(   4) = (   0.5000000   0.0000000   0.0000000  )
         5           O   tau(   5) = (   0.0000000   0.5000000   0.0000000  )

     number of k points=    10  Methfessel-Paxton smearing, width (Ry)=  0.0200
                       cart. coord. in units 2pi/alat
        k(    1) = (   0.0000000   0.0000000   0.0000000), wk =   0.0160000
        k(    2) = (   0.0000000   0.0000000   0.2000000), wk =   0.0960000
        k(    3) = (   0.0000000   0.0000000   0.4000000), wk =   0.0960000
        k(    4) = (   0.0000000   0.2000000   0.2000000), wk =   0.1920000
        k(    5) = (   0.0000000   0.2000000   0.4000000), wk =   0.3840000
        k(    6) = (   0.0000000   0.4000000   0.4000000), wk =   0.1920000
        k(    7) = (   0.2000000   0.2000000   0.2000000), wk =   0.1280000
        k(    8) = (   0.2000000   0.2000000   0.4000000), wk =   0.3840000
        k(    9) = (   0.2000000   0.4000000   0.4000000), wk =   0.3840000
        k(   10) = (   0.4000000   0.4000000   0.4000000), wk =   0.1280000

     Dense  grid:   137545 G-vectors     FFT dimensions: (  72,  72,  72)

     Smooth grid:    48501 G-vectors     FFT dimensions: (  45,  45,  45)

     Estimated max dynamical RAM per process >     299.83 MB

     Estimated total dynamical RAM >     599.66 MB

     Initial potential from superposition of free atoms

     starting charge      42.9822, renormalised to      43.0000
     Starting wfcs are   26 randomized atomic wfcs
     Checking if some PAW data can be deallocated... 

     total cpu time spent up to now is        5.8 secs

     Self-consistent Calculation

     iteration #  1     ecut=    70.00 Ry     beta= 0.70
     Davidson diagonalization with overlap
     ethr =  1.00E-02,  avg # of iterations =  2.0

     total cpu time spent up to now is       10.8 secs

     total energy              =   -1466.62849380 Ry
     estimated scf accuracy    <       1.78471972 Ry

     iteration #  2     ecut=    70.00 Ry     beta= 0.70
     Davidson diagonalization with overlap
     ethr =  4.15E-03,  avg # of iterations =  7.2

     total cpu time spent up to now is       17.3 secs

     total energy              =   -1467.06412575 Ry
     estimated scf accuracy    <       4.25741002 Ry

     iteration #  3     ecut=    70.00 Ry     beta= 0.70
     Davidson diagonalization with overlap
     ethr =  4.15E-03,  avg # of iterations =  2.3

     total cpu time spent up to now is       22.5 secs

     total energy              =   -1467.49483296 Ry
     estimated scf accuracy    <       0.43082147 Ry

     iteration #  4     ecut=    70.00 Ry     beta= 0.70
     Davidson diagonalization with overlap
     ethr =  1.00E-03,  avg # of iterations =  5.9

     total cpu time spent up to now is       29.3 secs

     total energy              =   -1467.75696790 Ry
     estimated scf accuracy    <       0.00564522 Ry

     iteration #  5     ecut=    70.00 Ry     beta= 0.70
     Davidson diagonalization with overlap
     c_bands:  1 eigenvalues not converged
     c_bands:  2 eigenvalues not converged
     c_bands:  1 eigenvalues not converged
     ethr =  1.31E-05,  avg # of iterations = 17.7

     total cpu time spent up to now is       39.2 secs

     total energy              =   -1467.76286744 Ry
     estimated scf accuracy    <       0.02568625 Ry

     iteration #  6     ecut=    70.00 Ry     beta= 0.70
     Davidson diagonalization with overlap
     ethr =  1.31E-05,  avg # of iterations =  3.2

     total cpu time spent up to now is       44.7 secs

     total energy              =   -1467.76143455 Ry
     estimated scf accuracy    <       0.01198651 Ry

     iteration #  7     ecut=    70.00 Ry     beta= 0.70
     Davidson diagonalization with overlap
     ethr =  1.31E-05,  avg # of iterations =  2.2

     total cpu time spent up to now is       49.9 secs

     total energy              =   -1467.76133857 Ry
     estimated scf accuracy    <       0.00421288 Ry

     iteration #  8     ecut=    70.00 Ry     beta= 0.70
     Davidson diagonalization with overlap
     ethr =  9.80E-06,  avg # of iterations =  4.8

     total cpu time spent up to now is       55.6 secs

     total energy              =   -1467.76166126 Ry
     estimated scf accuracy    <       0.00111395 Ry

     iteration #  9     ecut=    70.00 Ry     beta= 0.70
     Davidson diagonalization with overlap
     c_bands:  1 eigenvalues not converged
     ethr =  2.59E-06,  avg # of iterations = 10.1

     total cpu time spent up to now is       62.4 secs

     total energy              =   -1467.76207286 Ry
     estimated scf accuracy    <       0.00005264 Ry

     iteration # 10     ecut=    70.00 Ry     beta= 0.70
     Davidson diagonalization with overlap
     ethr =  1.22E-07,  avg # of iterations =  6.1

     total cpu time spent up to now is       68.0 secs

     total energy              =   -1467.76210256 Ry
     estimated scf accuracy    <       0.00005529 Ry

     iteration # 11     ecut=    70.00 Ry     beta= 0.70
     Davidson diagonalization with overlap
     ethr =  1.22E-07,  avg # of iterations =  1.9

     total cpu time spent up to now is       73.0 secs

     total energy              =   -1467.76210334 Ry
     estimated scf accuracy    <       0.00010664 Ry

     iteration # 12     ecut=    70.00 Ry     beta= 0.70
     Davidson diagonalization with overlap
     ethr =  1.22E-07,  avg # of iterations =  1.1

     total cpu time spent up to now is       78.1 secs

     total energy              =   -1467.76210295 Ry
     estimated scf accuracy    <       0.00010743 Ry

     iteration # 13     ecut=    70.00 Ry     beta= 0.70
     Davidson diagonalization with overlap
     ethr =  1.22E-07,  avg # of iterations =  1.4

     total cpu time spent up to now is       82.7 secs

     total energy              =   -1467.76210934 Ry
     estimated scf accuracy    <       0.00011147 Ry

     iteration # 14     ecut=    70.00 Ry     beta= 0.70
     Davidson diagonalization with overlap
     ethr =  1.22E-07,  avg # of iterations =  1.2

     total cpu time spent up to now is       88.1 secs

     total energy              =   -1467.76210584 Ry
     estimated scf accuracy    <       0.00013490 Ry

     iteration # 15     ecut=    70.00 Ry     beta= 0.70
     Davidson diagonalization with overlap
     ethr =  1.22E-07,  avg # of iterations =  1.1

     total cpu time spent up to now is       93.0 secs

     total energy              =   -1467.76207977 Ry
     estimated scf accuracy    <       0.00012486 Ry

     iteration # 16     ecut=    70.00 Ry     beta= 0.70
     Davidson diagonalization with overlap
     ethr =  1.22E-07,  avg # of iterations =  2.6

     total cpu time spent up to now is       98.5 secs

     total energy              =   -1467.76208712 Ry
     estimated scf accuracy    <       0.00005811 Ry

     iteration # 17     ecut=    70.00 Ry     beta= 0.70
     Davidson diagonalization with overlap
     ethr =  1.22E-07,  avg # of iterations =  1.0

     total cpu time spent up to now is      103.4 secs

     total energy              =   -1467.76203595 Ry
     estimated scf accuracy    <       0.00006710 Ry

     iteration # 18     ecut=    70.00 Ry     beta= 0.70
     Davidson diagonalization with overlap
     ethr =  1.22E-07,  avg # of iterations =  5.3

     total cpu time spent up to now is      110.3 secs

     total energy              =   -1467.76205474 Ry
     estimated scf accuracy    <       0.00012470 Ry

     iteration # 19     ecut=    70.00 Ry     beta= 0.70
     Davidson diagonalization with overlap
     ethr =  1.22E-07,  avg # of iterations =  4.9

     total cpu time spent up to now is      115.9 secs

     total energy              =   -1467.76207152 Ry
     estimated scf accuracy    <       0.00000395 Ry

     iteration # 20     ecut=    70.00 Ry     beta= 0.70
     Davidson diagonalization with overlap
     ethr =  9.18E-09,  avg # of iterations =  5.3

     total cpu time spent up to now is      122.4 secs

     End of self-consistent calculation

          k = 0.0000 0.0000 0.0000 (  6043 PWs)   bands (ev):

   -18.0669 -13.8266 -13.8266 -13.5315 -13.5315 -13.5315  -9.2215  -7.1557
    -7.1557  -3.1591  -3.1591  -3.1591   2.2117   3.6222   3.6222   3.6222
     7.1443   7.1443   7.1443   7.3226   7.3226   7.3226  12.3589  12.3589
    13.1713  14.1923

          k = 0.0000 0.0000 0.2000 (  6071 PWs)   bands (ev):

   -18.0607 -13.8264 -13.7827 -13.5337 -13.5337 -13.5314  -9.1286  -7.4192
    -7.1522  -3.1389  -3.1389  -3.1283   1.1659   3.6352   3.6352   5.0686
     6.9717   7.0636   7.0636   7.2504   7.2504   7.4025  12.7825  12.7894
    13.8143  14.4698

          k = 0.0000 0.0000 0.4000 (  6066 PWs)   bands (ev):

   -18.0506 -13.8261 -13.7100 -13.5373 -13.5373 -13.5312  -8.8671  -7.9522
    -7.1465  -3.1055  -3.1055  -3.0905   0.4120   3.6513   3.6513   5.8840
     6.7257   6.9876   6.9876   7.1003   7.1003   8.5474  13.3060  13.4962
    14.4459  14.8579

          k = 0.0000 0.2000 0.2000 (  6100 PWs)   bands (ev):

   -18.0549 -13.8048 -13.7593 -13.5358 -13.5337 -13.5336  -9.0338  -7.5156
    -7.2922  -3.1643  -3.1213  -3.0972   0.3985   3.6741   4.5093   5.3378
     6.6846   6.9744   7.1464   7.1619   7.4236   7.5231  13.0562  13.2685
    14.0572  14.5448

          k = 0.0000 0.2000 0.4000 (  6095 PWs)   bands (ev):

   -18.0456 -13.7974 -13.6920 -13.5390 -13.5372 -13.5335  -8.7639  -7.9698
    -7.3381  -3.1515  -3.1103  -3.0924  -0.2940   3.7355   4.8358   5.8395
     6.5709   6.8829   6.9820   7.0747   7.4040   8.7653  13.5208  13.7969
    14.4819  14.6946

          k = 0.0000 0.4000 0.4000 (  6082 PWs)   bands (ev):

   -18.0374 -13.7704 -13.6411 -13.5417 -13.5370 -13.5370  -8.4659  -8.0478
    -7.7399  -3.1938  -3.1710  -3.0710  -0.9894   3.8834   5.7086   6.2902
     6.6057   6.7277   6.7768   7.1087   7.7228   9.6770  13.6100  13.6612
    14.2221  14.2755

          k = 0.2000 0.2000 0.2000 (  6079 PWs)   bands (ev):

   -18.0495 -13.7591 -13.7591 -13.5359 -13.5359 -13.5354  -8.9410  -7.5056
    -7.5056  -3.1704  -3.1704  -3.0648  -0.2622   4.5439   4.5439   5.4947
     6.6774   6.6774   7.3610   7.3610   7.3791   7.6235  13.3756  13.3757
    14.0576  14.5390

          k = 0.2000 0.2000 0.4000 (  6071 PWs)   bands (ev):

   -18.0407 -13.7587 -13.6832 -13.5396 -13.5387 -13.5356  -8.6731  -7.9736
    -7.4892  -3.1807  -3.1769  -3.0925  -0.9299   4.5977   5.1442   5.8753
     6.4743   6.6959   7.2221   7.2520   7.4757   8.9156  13.2931  13.7812
    14.3073  14.3890

          k = 0.2000 0.4000 0.4000 (  6072 PWs)   bands (ev):

   -18.0327 -13.7219 -13.6410 -13.5422 -13.5393 -13.5392  -8.4094  -8.0305
    -7.8107  -3.2346  -3.2258  -3.1405  -1.6224   4.9594   5.9011   6.3134
     6.4343   6.6525   7.2219   7.3521   7.7384   9.7662  12.8912  12.9931
    13.5877  14.5886

          k = 0.4000 0.4000 0.4000 (  6067 PWs)   bands (ev):

   -18.0252 -13.6409 -13.6409 -13.5432 -13.5432 -13.5427  -8.2470  -8.0022
    -8.0022  -3.3005  -3.3005  -3.2595  -2.3689   6.2044   6.3646   6.3646
     6.5929   6.5929   7.6787   7.6787   7.7908  10.3130  12.0467  12.0467
    12.5663  15.5797

     the Fermi energy is     8.8812 ev

!    total energy              =   -1467.76207492 Ry
     total all-electron energy =    -59784.853858 Ry
     estimated scf accuracy    <       0.00000006 Ry
     smearing contrib. (-TS)   =      -0.00148459 Ry
     internal energy E=F+TS    =   -1467.76059033 Ry

     The total energy is F=E-TS. E is the sum of the following terms:
     one-electron contribution =     -89.20054937 Ry
     hartree contribution      =      75.19292768 Ry
     xc contribution           =     -75.14279998 Ry
     ewald contribution        =    -218.31105251 Ry
     one-center paw contrib.   =   -1160.29911616 Ry

     convergence has been achieved in  20 iterations

     Forces acting on atoms (cartesian axes, Ry/au):

     atom    1 type  1   force =     0.00000000    0.00000000    0.00000000
     atom    2 type  2   force =     0.00000000    0.00000000    0.00000000
     atom    3 type  3   force =     0.00000000    0.00000000    0.00000000
     atom    4 type  3   force =     0.00000000    0.00000000    0.00000000
     atom    5 type  3   force =     0.00000000    0.00000000    0.00000000

     Total force =     0.000000     Total SCF correction =     0.000000


     Computing stress (Cartesian axis) and pressure

          total   stress  (Ry/bohr**3)                   (kbar)     P=      -47.79
  -0.00032484   0.00000000   0.00000000          -47.79        0.00        0.00
   0.00000000  -0.00032484   0.00000000            0.00      -47.79        0.00
   0.00000000   0.00000000  -0.00032484            0.00        0.00      -47.79


     init_run     :      4.04s CPU      4.72s WALL (       1 calls)
     electrons    :     99.70s CPU    116.59s WALL (       1 calls)
     forces       :      1.29s CPU      1.61s WALL (       1 calls)
     stress       :      7.78s CPU      9.04s WALL (       1 calls)

     Called by init_run:
     wfcinit      :      0.97s CPU      1.05s WALL (       1 calls)
     potinit      :      0.85s CPU      0.96s WALL (       1 calls)
     hinit0       :      1.63s CPU      1.87s WALL (       1 calls)

     Called by electrons:
     c_bands      :     54.82s CPU     60.08s WALL (      20 calls)
     sum_band     :     20.46s CPU     26.17s WALL (      20 calls)
     v_of_rho     :      3.37s CPU      3.62s WALL (      21 calls)
     newd         :     10.33s CPU     15.47s WALL (      21 calls)
     PAW_pot      :     10.94s CPU     11.69s WALL (      21 calls)
     mix_rho      :      0.52s CPU      0.55s WALL (      20 calls)

     Called by c_bands:
     init_us_2    :      1.14s CPU      1.21s WALL (     430 calls)
     init_us_2:cp :      1.13s CPU      1.21s WALL (     430 calls)
     cegterg      :     52.11s CPU     57.05s WALL (     200 calls)

     Called by *egterg:
     cdiaghg      :      1.34s CPU      1.45s WALL (    1073 calls)
     h_psi        :     41.54s CPU     45.62s WALL (    1083 calls)
     s_psi        :      1.83s CPU      1.95s WALL (    1083 calls)
     g_psi        :      0.23s CPU      0.24s WALL (     873 calls)

     Called by h_psi:
     h_psi:calbec :      2.23s CPU      2.42s WALL (    1083 calls)
     vloc_psi     :     37.10s CPU     40.82s WALL (    1083 calls)
     add_vuspsi   :      2.00s CPU      2.14s WALL (    1083 calls)

     General routines
     calbec       :      3.09s CPU      3.34s WALL (    1333 calls)
     fft          :      2.53s CPU      2.81s WALL (     296 calls)
     ffts         :      0.18s CPU      0.19s WALL (      41 calls)
     fftw         :     39.64s CPU     43.76s WALL (   33310 calls)
     interpolate  :      0.30s CPU      0.33s WALL (      21 calls)

     Parallel routines

     PWSCF        :   1m53.75s CPU   2m13.03s WALL


   This run was terminated on:   3: 9:58   6May2024            

=------------------------------------------------------------------------------=
   JOB DONE.
=------------------------------------------------------------------------------=
