
     Program PWSCF v.7.1 starts on  6May2024 at  2: 1:29 

     This program is part of the open-source Quantum ESPRESSO suite
     for quantum simulation of materials; please cite
         "P. Giannozzi et al., J. Phys.:Condens. Matter 21 395502 (2009);
         "P. Giannozzi et al., J. Phys.:Condens. Matter 29 465901 (2017);
         "P. Giannozzi et al., J. Chem. Phys. 152 154105 (2020);
          URL http://www.quantum-espresso.org", 
     in publications or presentations arising from this work. More details at
     http://www.quantum-espresso.org/quote

     Parallel version (MPI), running on     2 processors

     MPI processes distributed on     1 nodes
     13936 MiB available memory on the printing compute node when the environment starts

     Waiting for input...
     Reading input from standard input
Warning: card &CELL ignored
Warning: card / ignored

     Current dimensions of program PWSCF are:
     Max number of different atomic species (ntypx) = 10
     Max number of k-points (npk) =  40000
     Max angular momentum in pseudopotentials (lmaxx) =  4
     file Ba.pbe-spn-kjpaw_psl.1.0.0.UPF: wavefunction(s)  5S 6S renormalized
     file Bi.pbe-dn-kjpaw_psl.1.0.0.UPF: wavefunction(s)  6P 5D renormalized
     file O.pbe-n-kjpaw_psl.1.0.0.UPF: wavefunction(s)  2S 2P renormalized
     Message from routine setup:
     using ibrav=0 with symmetry is DISCOURAGED, use correct ibrav instead

     R & G space division:  proc/nbgrp/npool/nimage =       2
     Subspace diagonalization in iterative solution of the eigenvalue problem:
     a serial algorithm will be used


     Parallelization info
     --------------------
     sticks:   dense  smooth     PW     G-vecs:    dense   smooth      PW
     Min        1562     782    219                65744    23290    3576
     Max        1563     783    222                65747    23295    3577
     Sum        3125    1565    441               131491    46585    7153

     Using Slab Decomposition



     bravais-lattice index     =            0
     lattice parameter (alat)  =       8.3715  a.u.
     unit-cell volume          =     586.6888 (a.u.)^3
     number of atoms/cell      =            5
     number of atomic types    =            3
     number of electrons       =        43.00
     number of Kohn-Sham states=           26
     kinetic-energy cutoff     =      70.0000  Ry
     charge density cutoff     =     560.0000  Ry
     scf convergence threshold =      1.0E-07
     mixing beta               =       0.7000
     number of iterations used =            8  plain     mixing
     Exchange-correlation= SLA  PW   PBX  PBC
                           (   1   4   3   4   0   0   0)

     celldm(1)=   8.371487  celldm(2)=   0.000000  celldm(3)=   0.000000
     celldm(4)=   0.000000  celldm(5)=   0.000000  celldm(6)=   0.000000

     crystal axes: (cart. coord. in units of alat)
               a(1) = (   1.000000   0.000000   0.000000 )  
               a(2) = (   0.000000   1.000000   0.000000 )  
               a(3) = (   0.000000   0.000000   1.000000 )  

     reciprocal axes: (cart. coord. in units 2 pi/alat)
               b(1) = (  1.000000  0.000000  0.000000 )  
               b(2) = (  0.000000  1.000000  0.000000 )  
               b(3) = (  0.000000  0.000000  1.000000 )  


     PseudoPot. # 1 for Ba read from file:
     /home/bond/Software/qe-7.1/pseudo/Ba.pbe-spn-kjpaw_psl.1.0.0.UPF
     MD5 check sum: 7cfe25f1fe7574a4710541d5a11d6531
     Pseudo is Projector augmented-wave + core cor, Zval = 10.0
     Generated using &quot;atomic&quot; code by A. Dal Corso  v.6.2.2
     Shape of augmentation charge: PSQ
     Using radial grid of 1251 points,  7 beta functions with: 
                l(1) =   0
                l(2) =   0
                l(3) =   0
                l(4) =   1
                l(5) =   1
                l(6) =   2
                l(7) =   2
     Q(r) pseudized with 0 coefficients 


     PseudoPot. # 2 for Bi read from file:
     /home/bond/Software/qe-7.1/pseudo/Bi.pbe-dn-kjpaw_psl.1.0.0.UPF
     MD5 check sum: 266ded784ae3bc462508ed03f0f37963
     Pseudo is Projector augmented-wave + core cor, Zval = 15.0
     Generated using &quot;atomic&quot; code by A. Dal Corso  v.6.2.2
     Shape of augmentation charge: PSQ
     Using radial grid of 1283 points,  6 beta functions with: 
                l(1) =   0
                l(2) =   0
                l(3) =   1
                l(4) =   1
                l(5) =   2
                l(6) =   2
     Q(r) pseudized with 0 coefficients 


     PseudoPot. # 3 for O  read from file:
     /home/bond/Software/qe-7.1/pseudo/O.pbe-n-kjpaw_psl.1.0.0.UPF
     MD5 check sum: e99d9cef9b487d1ca56f5b95ecd0fd7a
     Pseudo is Projector augmented-wave + core cor, Zval =  6.0
     Generated using &quot;atomic&quot; code by A. Dal Corso  v.6.3
     Shape of augmentation charge: PSQ
     Using radial grid of 1095 points,  4 beta functions with: 
                l(1) =   0
                l(2) =   0
                l(3) =   1
                l(4) =   1
     Q(r) pseudized with 0 coefficients 


     atomic species   valence    mass     pseudopotential
        Ba            10.00   137.32700     Ba( 1.00)
        Bi            15.00   208.98040     Bi( 1.00)
        O              6.00    15.99900     O ( 1.00)

     48 Sym. Ops., with inversion, found



   Cartesian axes

     site n.     atom                  positions (alat units)
         1           Ba  tau(   1) = (   0.5000000   0.5000000   0.5000000  )
         2           Bi  tau(   2) = (   0.0000000   0.0000000   0.0000000  )
         3           O   tau(   3) = (   0.0000000   0.0000000   0.5000000  )
         4           O   tau(   4) = (   0.5000000   0.0000000   0.0000000  )
         5           O   tau(   5) = (   0.0000000   0.5000000   0.0000000  )

     number of k points=    35  Methfessel-Paxton smearing, width (Ry)=  0.0200
                       cart. coord. in units 2pi/alat
        k(    1) = (   0.0000000   0.0000000   0.0000000), wk =   0.0039062
        k(    2) = (   0.0000000   0.0000000   0.1250000), wk =   0.0234375
        k(    3) = (   0.0000000   0.0000000   0.2500000), wk =   0.0234375
        k(    4) = (   0.0000000   0.0000000   0.3750000), wk =   0.0234375
        k(    5) = (   0.0000000   0.0000000  -0.5000000), wk =   0.0117188
        k(    6) = (   0.0000000   0.1250000   0.1250000), wk =   0.0468750
        k(    7) = (   0.0000000   0.1250000   0.2500000), wk =   0.0937500
        k(    8) = (   0.0000000   0.1250000   0.3750000), wk =   0.0937500
        k(    9) = (   0.0000000   0.1250000  -0.5000000), wk =   0.0468750
        k(   10) = (   0.0000000   0.2500000   0.2500000), wk =   0.0468750
        k(   11) = (   0.0000000   0.2500000   0.3750000), wk =   0.0937500
        k(   12) = (   0.0000000   0.2500000  -0.5000000), wk =   0.0468750
        k(   13) = (   0.0000000   0.3750000   0.3750000), wk =   0.0468750
        k(   14) = (   0.0000000   0.3750000  -0.5000000), wk =   0.0468750
        k(   15) = (   0.0000000  -0.5000000  -0.5000000), wk =   0.0117188
        k(   16) = (   0.1250000   0.1250000   0.1250000), wk =   0.0312500
        k(   17) = (   0.1250000   0.1250000   0.2500000), wk =   0.0937500
        k(   18) = (   0.1250000   0.1250000   0.3750000), wk =   0.0937500
        k(   19) = (   0.1250000   0.1250000  -0.5000000), wk =   0.0468750
        k(   20) = (   0.1250000   0.2500000   0.2500000), wk =   0.0937500
        k(   21) = (   0.1250000   0.2500000   0.3750000), wk =   0.1875000
        k(   22) = (   0.1250000   0.2500000  -0.5000000), wk =   0.0937500
        k(   23) = (   0.1250000   0.3750000   0.3750000), wk =   0.0937500
        k(   24) = (   0.1250000   0.3750000  -0.5000000), wk =   0.0937500
        k(   25) = (   0.1250000  -0.5000000  -0.5000000), wk =   0.0234375
        k(   26) = (   0.2500000   0.2500000   0.2500000), wk =   0.0312500
        k(   27) = (   0.2500000   0.2500000   0.3750000), wk =   0.0937500
        k(   28) = (   0.2500000   0.2500000  -0.5000000), wk =   0.0468750
        k(   29) = (   0.2500000   0.3750000   0.3750000), wk =   0.0937500
        k(   30) = (   0.2500000   0.3750000  -0.5000000), wk =   0.0937500
        k(   31) = (   0.2500000  -0.5000000  -0.5000000), wk =   0.0234375
        k(   32) = (   0.3750000   0.3750000   0.3750000), wk =   0.0312500
        k(   33) = (   0.3750000   0.3750000  -0.5000000), wk =   0.0468750
        k(   34) = (   0.3750000  -0.5000000  -0.5000000), wk =   0.0234375
        k(   35) = (  -0.5000000  -0.5000000  -0.5000000), wk =   0.0039062

     Dense  grid:   131491 G-vectors     FFT dimensions: (  64,  64,  64)

     Smooth grid:    46585 G-vectors     FFT dimensions: (  45,  45,  45)

     Estimated max dynamical RAM per process >     312.45 MB

     Estimated total dynamical RAM >     624.90 MB

     Initial potential from superposition of free atoms

     starting charge      42.9822, renormalised to      43.0000
     Starting wfcs are   26 randomized atomic wfcs
     Checking if some PAW data can be deallocated... 

     total cpu time spent up to now is       10.7 secs

     Self-consistent Calculation

     iteration #  1     ecut=    70.00 Ry     beta= 0.70
     Davidson diagonalization with overlap
     ethr =  1.00E-02,  avg # of iterations =  2.2

     total cpu time spent up to now is       26.3 secs

     total energy              =   -1466.64795636 Ry
     estimated scf accuracy    <       1.75780993 Ry

     iteration #  2     ecut=    70.00 Ry     beta= 0.70
     Davidson diagonalization with overlap
     ethr =  4.09E-03,  avg # of iterations =  7.5

     total cpu time spent up to now is       50.0 secs

     total energy              =   -1467.09365414 Ry
     estimated scf accuracy    <       4.09278705 Ry

     iteration #  3     ecut=    70.00 Ry     beta= 0.70
     Davidson diagonalization with overlap
     ethr =  4.09E-03,  avg # of iterations =  2.3

     total cpu time spent up to now is       67.3 secs

     total energy              =   -1467.37113167 Ry
     estimated scf accuracy    <       0.44748629 Ry

     iteration #  4     ecut=    70.00 Ry     beta= 0.70
     Davidson diagonalization with overlap
     ethr =  1.04E-03,  avg # of iterations =  5.3

     total cpu time spent up to now is       89.4 secs

     total energy              =   -1467.78425098 Ry
     estimated scf accuracy    <       0.21669891 Ry

     iteration #  5     ecut=    70.00 Ry     beta= 0.70
     Davidson diagonalization with overlap
     ethr =  5.04E-04,  avg # of iterations =  2.1

     total cpu time spent up to now is      104.6 secs

     total energy              =   -1467.74600366 Ry
     estimated scf accuracy    <       0.11198667 Ry

     iteration #  6     ecut=    70.00 Ry     beta= 0.70
     Davidson diagonalization with overlap
     ethr =  2.60E-04,  avg # of iterations =  6.5

     total cpu time spent up to now is      121.8 secs

     total energy              =   -1467.76111104 Ry
     estimated scf accuracy    <       0.00604572 Ry

     iteration #  7     ecut=    70.00 Ry     beta= 0.70
     Davidson diagonalization with overlap
     c_bands:  1 eigenvalues not converged
     c_bands:  1 eigenvalues not converged
     c_bands:  2 eigenvalues not converged
     c_bands:  1 eigenvalues not converged
     c_bands:  1 eigenvalues not converged
     c_bands:  1 eigenvalues not converged
     c_bands:  2 eigenvalues not converged
     c_bands:  1 eigenvalues not converged
     c_bands:  1 eigenvalues not converged
     c_bands:  1 eigenvalues not converged
     c_bands:  1 eigenvalues not converged
     ethr =  1.41E-05,  avg # of iterations = 13.0

     total cpu time spent up to now is      144.0 secs

     total energy              =   -1467.77087112 Ry
     estimated scf accuracy    <       0.00604636 Ry

     iteration #  8     ecut=    70.00 Ry     beta= 0.70
     Davidson diagonalization with overlap
     ethr =  1.41E-05,  avg # of iterations =  2.2

     total cpu time spent up to now is      155.0 secs

     total energy              =   -1467.76898539 Ry
     estimated scf accuracy    <       0.00454752 Ry

     iteration #  9     ecut=    70.00 Ry     beta= 0.70
     Davidson diagonalization with overlap
     c_bands:  1 eigenvalues not converged
     ethr =  1.06E-05,  avg # of iterations =  2.5

     total cpu time spent up to now is      166.6 secs

     total energy              =   -1467.76929724 Ry
     estimated scf accuracy    <       0.00042569 Ry

     iteration # 10     ecut=    70.00 Ry     beta= 0.70
     Davidson diagonalization with overlap
     c_bands:  1 eigenvalues not converged
     c_bands:  1 eigenvalues not converged
     c_bands:  1 eigenvalues not converged
     ethr =  9.90E-07,  avg # of iterations =  9.1

     total cpu time spent up to now is      185.2 secs

     total energy              =   -1467.76986935 Ry
     estimated scf accuracy    <       0.00069661 Ry

     iteration # 11     ecut=    70.00 Ry     beta= 0.70
     Davidson diagonalization with overlap
     c_bands:  1 eigenvalues not converged
     ethr =  9.90E-07,  avg # of iterations =  2.9

     total cpu time spent up to now is      196.4 secs

     total energy              =   -1467.76991375 Ry
     estimated scf accuracy    <       0.00017755 Ry

     iteration # 12     ecut=    70.00 Ry     beta= 0.70
     Davidson diagonalization with overlap
     ethr =  4.13E-07,  avg # of iterations =  2.2

     total cpu time spent up to now is      207.8 secs

     total energy              =   -1467.76988734 Ry
     estimated scf accuracy    <       0.00014510 Ry

     iteration # 13     ecut=    70.00 Ry     beta= 0.70
     Davidson diagonalization with overlap
     ethr =  3.37E-07,  avg # of iterations =  2.5

     total cpu time spent up to now is      219.7 secs

     total energy              =   -1467.76990198 Ry
     estimated scf accuracy    <       0.00002446 Ry

     iteration # 14     ecut=    70.00 Ry     beta= 0.70
     Davidson diagonalization with overlap
     ethr =  5.69E-08,  avg # of iterations =  5.4

     total cpu time spent up to now is      234.3 secs

     End of self-consistent calculation

          k = 0.0000 0.0000 0.0000 (  5743 PWs)   bands (ev):

   -17.3287 -13.1813 -13.1813 -12.8038 -12.8038 -12.8038  -8.8698  -6.5476
    -6.5476  -2.4392  -2.4392  -2.4392   3.2097   4.0438   4.0438   4.0438
     7.6487   7.6487   7.6487   7.8698   7.8698   7.8698  12.9895  12.9896
    14.0291  14.9184

          k = 0.0000 0.0000 0.1250 (  5791 PWs)   bands (ev):

   -17.3252 -13.1812 -13.1586 -12.8051 -12.8051 -12.8038  -8.8325  -6.6761
    -6.5459  -2.4282  -2.4282  -2.4201   2.4387   4.0472   4.0472   4.9984
     7.5662   7.6106   7.6106   7.8373   7.8373   7.8852  13.1821  13.1895
    14.2962  15.0544

          k = 0.0000 0.0000 0.2500 (  5790 PWs)   bands (ev):

   -17.3168 -13.1809 -13.1028 -12.8080 -12.8080 -12.8037  -8.7162  -7.0090
    -6.5418  -2.4014  -2.4014  -2.3806   1.6687   4.0531   4.0531   6.0306
     7.3828   7.5340   7.5340   7.7532   7.7532   8.2184  13.6519  13.6695
    15.0435  15.3670

          k = 0.0000 0.0000 0.3750 (  5786 PWs)   bands (ev):

   -17.3084 -13.1805 -13.0458 -12.8110 -12.8110 -12.8036  -8.5278  -7.4100
    -6.5376  -2.3741  -2.3741  -2.3499   1.2147   4.0554   4.0554   6.3723
     7.2168   7.4901   7.4901   7.6489   7.6489   9.1722  14.0829  14.1405
    15.6452  15.6481

          k = 0.0000 0.0000-0.5000 (  5846 PWs)   bands (ev):

   -17.3049 -13.1805 -13.0220 -12.8123 -12.8123 -12.8036  -8.3926  -7.6324
    -6.5358  -2.3627  -2.3627  -2.3396   1.0681   4.0552   4.0552   6.4038
     7.1523   7.4943   7.4943   7.5866   7.5866   9.7703  14.1366  14.3518
    15.7483  15.7512

          k = 0.0000 0.1250 0.1250 (  5782 PWs)   bands (ev):

   -17.3219 -13.1698 -13.1468 -12.8062 -12.8051 -12.8050  -8.7948  -6.7324
    -6.6108  -2.4372  -2.4178  -2.3915   1.9231   4.0558   4.4339   5.3010
     7.4192   7.5712   7.6550   7.8013   7.8612   7.9054  13.3401  13.3921
    14.4814  15.0951

          k = 0.0000 0.1250 0.2500 (  5792 PWs)   bands (ev):

   -17.3138 -13.1653 -13.0945 -12.8091 -12.8080 -12.8049  -8.6774  -7.0290
    -6.6312  -2.4266  -2.3926  -2.3606   1.2400   4.0748   4.6197   6.0447
     7.2293   7.4905   7.6162   7.7088   7.8599   8.2834  13.7481  13.8842
    15.0080  15.1856

          k = 0.0000 0.1250 0.3750 (  5801 PWs)   bands (ev):

   -17.3056 -13.1644 -13.0375 -12.8119 -12.8109 -12.8048  -8.4865  -7.4191
    -6.6292  -2.4018  -2.3670  -2.3523   0.8095   4.0909   4.6622   6.3501
     7.1204   7.4434   7.5519   7.5942   7.7912   9.2583  14.1889  14.3010
    15.2895  15.4604

          k = 0.0000 0.1250-0.5000 (  5802 PWs)   bands (ev):

   -17.3022 -13.1641 -13.0134 -12.8131 -12.8121 -12.8047  -8.3467  -7.6416
    -6.6276  -2.3809  -2.3618  -2.3563   0.6682   4.0966   4.6721   6.3809
     7.0943   7.4518   7.5221   7.5292   7.7512   9.8604  14.2262  14.4752
    15.5325  15.7581

          k = 0.0000 0.2500 0.2500 (  5812 PWs)   bands (ev):

   -17.3063 -13.1427 -13.0588 -12.8116 -12.8079 -12.8077  -8.5573  -7.1505
    -6.8013  -2.4463  -2.3713  -2.3575   0.5969   4.1275   5.4496   6.1441
     7.0305   7.3962   7.5971   7.6672   8.0375   8.6745  14.0144  14.4396
    15.1082  15.4720

          k = 0.0000 0.2500 0.3750 (  5816 PWs)   bands (ev):

   -17.2989 -13.1342 -13.0075 -12.8140 -12.8107 -12.8077  -8.3603  -7.4504
    -6.8715  -2.4437  -2.3822  -2.3498   0.1708   4.1800   5.7830   6.2846
     7.0286   7.3322   7.4630   7.6423   8.0550   9.5896  14.3562  14.7849
    15.1886  15.5716

          k = 0.0000 0.2500-0.5000 (  5778 PWs)   bands (ev):

   -17.2958 -13.1322 -12.9841 -12.8150 -12.8119 -12.8075  -8.2066  -7.6639
    -6.8838  -2.4234  -2.4134  -2.3408   0.0285   4.2017   5.8558   6.2788
     7.1179   7.3431   7.3721   7.6074   8.0384  10.1795  14.3152  14.8032
    15.0724  15.8296

          k = 0.0000 0.3750 0.3750 (  5816 PWs)   bands (ev):

   -17.2921 -13.1163 -12.9634 -12.8162 -12.8105 -12.8104  -8.1526  -7.5403
    -7.1426  -2.4684  -2.4281  -2.3324  -0.2655   4.2745   6.1912   6.6489
     7.0683   7.2355   7.3188   7.6799   8.2333  10.2863  14.4898  14.8452
    15.0467  15.3292

          k = 0.0000 0.3750-0.5000 (  5818 PWs)   bands (ev):

   -17.2893 -13.1116 -12.9420 -12.8171 -12.8116 -12.8104  -7.9696  -7.6865
    -7.2444  -2.4640  -2.4615  -2.3251  -0.4136   4.3154   6.1540   6.8599
     7.2202   7.2248   7.2296   7.6568   8.2795  10.8130  14.2499  14.6217
    15.0267  15.1578

          k = 0.0000-0.5000-0.5000 (  5824 PWs)   bands (ev):

   -17.2866 -13.1056 -12.9214 -12.8179 -12.8116 -12.8116  -7.6959  -7.6959
    -7.5714  -2.4802  -2.4802  -2.3186  -0.5649   4.3655   6.1018   7.1725
     7.1725   7.2714   7.2714   7.6307   8.3742  11.3243  14.1823  14.1823
    14.6857  15.1010

          k = 0.1250 0.1250 0.1250 (  5779 PWs)   bands (ev):

   -17.3186 -13.1466 -13.1466 -12.8062 -12.8062 -12.8061  -8.7569  -6.7291
    -6.7291  -2.4326  -2.4326  -2.3622   1.4967   4.4415   4.4415   5.5076
     7.3958   7.3958   7.7535   7.8503   7.8759   7.8759  13.5218  13.5219
    14.5911  15.3183

          k = 0.1250 0.1250 0.2500 (  5790 PWs)   bands (ev):

   -17.3108 -13.1463 -13.0896 -12.8092 -12.8089 -12.8061  -8.6391  -7.0402
    -6.7211  -2.4306  -2.4214  -2.3347   0.8631   4.4579   4.7677   6.0584
     7.1955   7.3330   7.7357   7.8147   7.8434   8.3302  13.8816  13.9798
    14.9607  15.3063

          k = 0.1250 0.1250 0.3750 (  5798 PWs)   bands (ev):

   -17.3029 -13.1459 -13.0313 -12.8122 -12.8115 -12.8060  -8.4468  -7.4249
    -6.7130  -2.4101  -2.4075  -2.3362   0.4460   4.4715   4.8758   6.3402
     7.0670   7.3305   7.6426   7.6888   7.8249   9.3298  14.2916  14.3344
    15.3872  15.4038

          k = 0.1250 0.1250-0.5000 (  5802 PWs)   bands (ev):

   -17.2996 -13.1458 -13.0067 -12.8135 -12.8126 -12.8060  -8.3032  -7.6481
    -6.7097  -2.4055  -2.3844  -2.3527   0.3073   4.4761   4.9059   6.3797
     7.0255   7.3885   7.5860   7.6000   7.8127   9.9392  14.1956  14.5807
    15.3354  15.5068

          k = 0.1250 0.2500 0.2500 (  5806 PWs)   bands (ev):

   -17.3035 -13.1183 -13.0587 -12.8117 -12.8090 -12.8089  -8.5208  -7.1443
    -6.8890  -2.4549  -2.4263  -2.3252   0.2540   4.6169   5.4694   6.1506
     7.0472   7.2403   7.7278   7.8209   8.0198   8.7075  14.1166  14.3696
    15.0155  15.3108

          k = 0.1250 0.2500 0.3750 (  5813 PWs)   bands (ev):

   -17.2962 -13.1107 -13.0059 -12.8143 -12.8117 -12.8089  -8.3257  -7.4484
    -6.9364  -2.4589  -2.4301  -2.3427  -0.1653   4.6782   5.8369   6.3133
     6.9902   7.2235   7.6213   7.7694   8.0562   9.6327  14.3263  14.5676
    15.1272  15.3168

          k = 0.1250 0.2500-0.5000 (  5794 PWs)   bands (ev):

   -17.2932 -13.1092 -12.9818 -12.8153 -12.8128 -12.8088  -8.1708  -7.6639
    -6.9413  -2.4505  -2.4367  -2.3566  -0.3072   4.7012   5.9291   6.3309
     7.0026   7.2928   7.5554   7.7010   8.0548  10.2340  14.0679  14.8418
    14.8917  15.4546

          k = 0.1250 0.3750 0.3750 (  5792 PWs)   bands (ev):

   -17.2895 -13.0908 -12.9633 -12.8165 -12.8117 -12.8116  -8.1258  -7.5320
    -7.1851  -2.4882  -2.4619  -2.3581  -0.5991   4.7901   6.2680   6.6742
     6.9814   7.1775   7.5382   7.7914   8.2379  10.3178  14.2971  14.3607
    14.8852  15.1425

          k = 0.1250 0.3750-0.5000 (  5810 PWs)   bands (ev):

   -17.2868 -13.0860 -12.9418 -12.8175 -12.8129 -12.8117  -7.9472  -7.6801
    -7.2723  -2.4893  -2.4854  -2.3648  -0.7486   4.8357   6.2539   6.8533
     7.0282   7.2618   7.5229   7.7381   8.2878  10.8535  13.8858  14.2945
    14.7466  15.1594

          k = 0.1250-0.5000-0.5000 (  5800 PWs)   bands (ev):

   -17.2841 -13.0796 -12.9213 -12.8183 -12.8129 -12.8129  -7.6869  -7.6869
    -7.5794  -2.5042  -2.5042  -2.3687  -0.9021   4.8921   6.2210   7.0315
     7.0315   7.5239   7.5239   7.6323   8.3816  11.3758  13.7960  13.7960
    14.4269  15.2485

          k = 0.2500 0.2500 0.2500 (  5830 PWs)   bands (ev):

   -17.2967 -13.0584 -13.0584 -12.8121 -12.8121 -12.8110  -8.4079  -7.1292
    -7.1292  -2.4759  -2.4759  -2.3323  -0.3412   5.5166   5.5166   6.2138
     7.0575   7.0575   7.9503   7.9503   8.0182   9.0078  14.2814  14.2814
    14.8587  15.3474

          k = 0.2500 0.2500 0.3750 (  5793 PWs)   bands (ev):

   -17.2898 -13.0581 -12.9967 -12.8152 -12.8138 -12.8117  -8.2200  -7.4498
    -7.1140  -2.4972  -2.4939  -2.3741  -0.7711   5.5632   6.0896   6.3866
     6.9529   7.0960   7.9004   7.9083   8.1093   9.8558  14.0032  14.2697
    14.7786  15.2709

          k = 0.2500 0.2500-0.5000 (  5784 PWs)   bands (ev):

   -17.2870 -13.0579 -12.9707 -12.8164 -12.8147 -12.8118  -8.0623  -7.6642
    -7.1076  -2.5061  -2.4914  -2.4025  -0.9197   5.5821   6.2586   6.4301
     6.9221   7.2204   7.7844   7.8735   8.1384  10.4600  13.6012  14.2810
    14.7727  15.2431

          k = 0.2500 0.3750 0.3750 (  5798 PWs)   bands (ev):

   -17.2834 -13.0279 -12.9632 -12.8173 -12.8150 -12.8144  -8.0444  -7.5118
    -7.3083  -2.5360  -2.5313  -2.4292  -1.2242   5.8840   6.4500   6.7418
     6.9323   7.0870   7.9117   8.0070   8.2532  10.4658  13.6635  13.7599
    14.2934  15.5214

          k = 0.2500 0.3750-0.5000 (  5814 PWs)   bands (ev):

   -17.2807 -13.0233 -12.9409 -12.8184 -12.8158 -12.8149  -7.8807  -7.6647
    -7.3547  -2.5490  -2.5424  -2.4585  -1.3845   5.9530   6.4908   6.8645
     6.9307   7.3094   7.8802   7.9677   8.3101  11.0049  13.2194  13.6129
    14.1163  15.5812

          k = 0.2500-0.5000-0.5000 (  5812 PWs)   bands (ev):

   -17.2781 -13.0156 -12.9213 -12.8193 -12.8161 -12.8161  -7.6650  -7.6650
    -7.6001  -2.5618  -2.5618  -2.4859  -1.5508   6.0475   6.5080   6.9455
     6.9455   7.6360   7.9010   7.9010   8.3994  11.5384  13.0709  13.0709
    13.8535  15.6794

          k = 0.3750 0.3750 0.3750 (  5800 PWs)   bands (ev):

   -17.2772 -12.9630 -12.9630 -12.8182 -12.8182 -12.8171  -7.9092  -7.4914
    -7.4914  -2.5838  -2.5838  -2.5126  -1.7095   6.6318   6.8312   6.8312
     7.0077   7.0077   8.1685   8.1685   8.3015  10.8983  13.1453  13.1453
    13.7174  16.1294

          k = 0.3750 0.3750-0.5000 (  5804 PWs)   bands (ev):

   -17.2747 -12.9629 -12.9355 -12.8195 -12.8186 -12.8181  -7.7731  -7.6492
    -7.4828  -2.6036  -2.5976  -2.5531  -1.8852   6.7157   6.8974   6.9069
     6.9416   7.3987   8.1801   8.2019   8.3542  11.3735  12.6611  12.9530
    13.4815  16.1401

          k = 0.3750-0.5000-0.5000 (  5824 PWs)   bands (ev):

   -17.2722 -12.9493 -12.9213 -12.8204 -12.8194 -12.8194  -7.6427  -7.6427
    -7.6231  -2.6193  -2.6193  -2.5980  -2.0682   6.7949   6.9180   6.9180
     7.1652   7.6398   8.2631   8.2631   8.4175  11.8425  12.4399  12.4399
    13.1829  16.2904

          k =-0.5000-0.5000-0.5000 (  5832 PWs)   bands (ev):

   -17.2697 -12.9212 -12.9212 -12.8208 -12.8208 -12.8208  -7.6334  -7.6334
    -7.6334  -2.6430  -2.6430  -2.6430  -2.2582   6.9139   6.9139   6.9139
     7.6414   7.6414   8.4250   8.4250   8.4250  12.1816  12.1816  12.1816
    12.6900  16.6815

     the Fermi energy is     9.7768 ev

!    total energy              =   -1467.76991530 Ry
     total all-electron energy =    -59784.861698 Ry
     estimated scf accuracy    <       0.00000008 Ry
     smearing contrib. (-TS)   =      -0.00022679 Ry
     internal energy E=F+TS    =   -1467.76968851 Ry

     The total energy is F=E-TS. E is the sum of the following terms:
     one-electron contribution =     -84.12653435 Ry
     hartree contribution      =      73.70287440 Ry
     xc contribution           =     -75.27530725 Ry
     ewald contribution        =    -221.76066282 Ry
     one-center paw contrib.   =   -1160.31005849 Ry

     convergence has been achieved in  14 iterations

     Forces acting on atoms (cartesian axes, Ry/au):

     atom    1 type  1   force =     0.00000000    0.00000000    0.00000000
     atom    2 type  2   force =     0.00000000    0.00000000    0.00000000
     atom    3 type  3   force =     0.00000000    0.00000000    0.00000000
     atom    4 type  3   force =     0.00000000    0.00000000    0.00000000
     atom    5 type  3   force =     0.00000000    0.00000000    0.00000000

     Total force =     0.000000     Total SCF correction =     0.000000


     Computing stress (Cartesian axis) and pressure

          total   stress  (Ry/bohr**3)                   (kbar)     P=       -5.67
  -0.00003851   0.00000000   0.00000000           -5.67        0.00        0.00
   0.00000000  -0.00003851   0.00000000            0.00       -5.67        0.00
   0.00000000   0.00000000  -0.00003851            0.00        0.00       -5.67


     init_run     :      8.85s CPU      9.30s WALL (       1 calls)
     electrons    :    184.49s CPU    223.58s WALL (       1 calls)
     forces       :      1.69s CPU      1.99s WALL (       1 calls)
     stress       :     10.14s CPU     11.23s WALL (       1 calls)

     Called by init_run:
     wfcinit      :      4.80s CPU      4.92s WALL (       1 calls)
     potinit      :      0.92s CPU      0.95s WALL (       1 calls)
     hinit0       :      2.14s CPU      2.22s WALL (       1 calls)

     Called by electrons:
     c_bands      :    141.84s CPU    166.71s WALL (      14 calls)
     sum_band     :     27.36s CPU     35.91s WALL (      14 calls)
     v_of_rho     :      1.72s CPU      2.11s WALL (      15 calls)
     newd         :      6.84s CPU     10.73s WALL (      15 calls)
     PAW_pot      :      7.81s CPU      9.29s WALL (      15 calls)
     mix_rho      :      0.26s CPU      0.31s WALL (      14 calls)

     Called by c_bands:
     init_us_2    :      2.77s CPU      3.42s WALL (    1085 calls)
     init_us_2:cp :      2.76s CPU      3.41s WALL (    1085 calls)
     cegterg      :    135.54s CPU    159.20s WALL (     490 calls)

     Called by *egterg:
     cdiaghg      :      3.53s CPU      4.11s WALL (    2786 calls)
     h_psi        :    109.63s CPU    128.31s WALL (    2821 calls)
     s_psi        :      4.64s CPU      5.43s WALL (    2821 calls)
     g_psi        :      0.56s CPU      0.66s WALL (    2296 calls)

     Called by h_psi:
     h_psi:calbec :      5.76s CPU      6.78s WALL (    2821 calls)
     vloc_psi     :     98.33s CPU    115.02s WALL (    2821 calls)
     add_vuspsi   :      5.03s CPU      5.88s WALL (    2821 calls)

     General routines
     calbec       :      7.84s CPU      9.24s WALL (    3486 calls)
     fft          :      1.51s CPU      1.70s WALL (     218 calls)
     ffts         :      0.16s CPU      0.17s WALL (      29 calls)
     fftw         :    103.98s CPU    122.43s WALL (   84926 calls)
     interpolate  :      0.22s CPU      0.25s WALL (      15 calls)

     Parallel routines

     PWSCF        :   3m26.12s CPU   4m 7.52s WALL


   This run was terminated on:   2: 5:36   6May2024            

=------------------------------------------------------------------------------=
   JOB DONE.
=------------------------------------------------------------------------------=
