
     Program PWSCF v.7.1 starts on  6May2024 at  2:29:30 

     This program is part of the open-source Quantum ESPRESSO suite
     for quantum simulation of materials; please cite
         "P. Giannozzi et al., J. Phys.:Condens. Matter 21 395502 (2009);
         "P. Giannozzi et al., J. Phys.:Condens. Matter 29 465901 (2017);
         "P. Giannozzi et al., J. Chem. Phys. 152 154105 (2020);
          URL http://www.quantum-espresso.org", 
     in publications or presentations arising from this work. More details at
     http://www.quantum-espresso.org/quote

     Parallel version (MPI), running on     2 processors

     MPI processes distributed on     1 nodes
     13798 MiB available memory on the printing compute node when the environment starts

     Waiting for input...
     Reading input from standard input
Warning: card &CELL ignored
Warning: card / ignored

     Current dimensions of program PWSCF are:
     Max number of different atomic species (ntypx) = 10
     Max number of k-points (npk) =  40000
     Max angular momentum in pseudopotentials (lmaxx) =  4
     file Ba.pbe-spn-kjpaw_psl.1.0.0.UPF: wavefunction(s)  5S 6S renormalized
     file Bi.pbe-dn-kjpaw_psl.1.0.0.UPF: wavefunction(s)  6P 5D renormalized
     file O.pbe-n-kjpaw_psl.1.0.0.UPF: wavefunction(s)  2S 2P renormalized
     Message from routine setup:
     using ibrav=0 with symmetry is DISCOURAGED, use correct ibrav instead

     R & G space division:  proc/nbgrp/npool/nimage =       2
     Subspace diagonalization in iterative solution of the eigenvalue problem:
     a serial algorithm will be used


     Parallelization info
     --------------------
     sticks:   dense  smooth     PW     G-vecs:    dense   smooth      PW
     Min        1478     740    210                60356    21464    3224
     Max        1479     741    211                60357    21467    3227
     Sum        2957    1481    421               120713    42931    6451

     Using Slab Decomposition



     bravais-lattice index     =            0
     lattice parameter (alat)  =       8.1447  a.u.
     unit-cell volume          =     540.2918 (a.u.)^3
     number of atoms/cell      =            5
     number of atomic types    =            3
     number of electrons       =        43.00
     number of Kohn-Sham states=           26
     kinetic-energy cutoff     =      70.0000  Ry
     charge density cutoff     =     560.0000  Ry
     scf convergence threshold =      1.0E-07
     mixing beta               =       0.7000
     number of iterations used =            8  plain     mixing
     Exchange-correlation= SLA  PW   PBX  PBC
                           (   1   4   3   4   0   0   0)

     celldm(1)=   8.144720  celldm(2)=   0.000000  celldm(3)=   0.000000
     celldm(4)=   0.000000  celldm(5)=   0.000000  celldm(6)=   0.000000

     crystal axes: (cart. coord. in units of alat)
               a(1) = (   1.000000   0.000000   0.000000 )  
               a(2) = (   0.000000   1.000000   0.000000 )  
               a(3) = (   0.000000   0.000000   1.000000 )  

     reciprocal axes: (cart. coord. in units 2 pi/alat)
               b(1) = (  1.000000  0.000000  0.000000 )  
               b(2) = (  0.000000  1.000000  0.000000 )  
               b(3) = (  0.000000  0.000000  1.000000 )  


     PseudoPot. # 1 for Ba read from file:
     /home/bond/Software/qe-7.1/pseudo/Ba.pbe-spn-kjpaw_psl.1.0.0.UPF
     MD5 check sum: 7cfe25f1fe7574a4710541d5a11d6531
     Pseudo is Projector augmented-wave + core cor, Zval = 10.0
     Generated using &quot;atomic&quot; code by A. Dal Corso  v.6.2.2
     Shape of augmentation charge: PSQ
     Using radial grid of 1251 points,  7 beta functions with: 
                l(1) =   0
                l(2) =   0
                l(3) =   0
                l(4) =   1
                l(5) =   1
                l(6) =   2
                l(7) =   2
     Q(r) pseudized with 0 coefficients 


     PseudoPot. # 2 for Bi read from file:
     /home/bond/Software/qe-7.1/pseudo/Bi.pbe-dn-kjpaw_psl.1.0.0.UPF
     MD5 check sum: 266ded784ae3bc462508ed03f0f37963
     Pseudo is Projector augmented-wave + core cor, Zval = 15.0
     Generated using &quot;atomic&quot; code by A. Dal Corso  v.6.2.2
     Shape of augmentation charge: PSQ
     Using radial grid of 1283 points,  6 beta functions with: 
                l(1) =   0
                l(2) =   0
                l(3) =   1
                l(4) =   1
                l(5) =   2
                l(6) =   2
     Q(r) pseudized with 0 coefficients 


     PseudoPot. # 3 for O  read from file:
     /home/bond/Software/qe-7.1/pseudo/O.pbe-n-kjpaw_psl.1.0.0.UPF
     MD5 check sum: e99d9cef9b487d1ca56f5b95ecd0fd7a
     Pseudo is Projector augmented-wave + core cor, Zval =  6.0
     Generated using &quot;atomic&quot; code by A. Dal Corso  v.6.3
     Shape of augmentation charge: PSQ
     Using radial grid of 1095 points,  4 beta functions with: 
                l(1) =   0
                l(2) =   0
                l(3) =   1
                l(4) =   1
     Q(r) pseudized with 0 coefficients 


     atomic species   valence    mass     pseudopotential
        Ba            10.00   137.32700     Ba( 1.00)
        Bi            15.00   208.98040     Bi( 1.00)
        O              6.00    15.99900     O ( 1.00)

     48 Sym. Ops., with inversion, found



   Cartesian axes

     site n.     atom                  positions (alat units)
         1           Ba  tau(   1) = (   0.5000000   0.5000000   0.5000000  )
         2           Bi  tau(   2) = (   0.0000000   0.0000000   0.0000000  )
         3           O   tau(   3) = (   0.0000000   0.0000000   0.5000000  )
         4           O   tau(   4) = (   0.5000000   0.0000000   0.0000000  )
         5           O   tau(   5) = (   0.0000000   0.5000000   0.0000000  )

     number of k points=    10  Methfessel-Paxton smearing, width (Ry)=  0.0200
                       cart. coord. in units 2pi/alat
        k(    1) = (   0.0000000   0.0000000   0.0000000), wk =   0.0160000
        k(    2) = (   0.0000000   0.0000000   0.2000000), wk =   0.0960000
        k(    3) = (   0.0000000   0.0000000   0.4000000), wk =   0.0960000
        k(    4) = (   0.0000000   0.2000000   0.2000000), wk =   0.1920000
        k(    5) = (   0.0000000   0.2000000   0.4000000), wk =   0.3840000
        k(    6) = (   0.0000000   0.4000000   0.4000000), wk =   0.1920000
        k(    7) = (   0.2000000   0.2000000   0.2000000), wk =   0.1280000
        k(    8) = (   0.2000000   0.2000000   0.4000000), wk =   0.3840000
        k(    9) = (   0.2000000   0.4000000   0.4000000), wk =   0.3840000
        k(   10) = (   0.4000000   0.4000000   0.4000000), wk =   0.1280000

     Dense  grid:   120713 G-vectors     FFT dimensions: (  64,  64,  64)

     Smooth grid:    42931 G-vectors     FFT dimensions: (  45,  45,  45)

     Estimated max dynamical RAM per process >     261.83 MB

     Estimated total dynamical RAM >     523.66 MB

     Initial potential from superposition of free atoms

     starting charge      42.9822, renormalised to      43.0000
     Starting wfcs are   26 randomized atomic wfcs
     Checking if some PAW data can be deallocated... 

     total cpu time spent up to now is        5.1 secs

     Self-consistent Calculation

     iteration #  1     ecut=    70.00 Ry     beta= 0.70
     Davidson diagonalization with overlap
     ethr =  1.00E-02,  avg # of iterations =  5.5

     total cpu time spent up to now is       10.1 secs

     total energy              =   -1466.68968856 Ry
     estimated scf accuracy    <       1.68566300 Ry

     iteration #  2     ecut=    70.00 Ry     beta= 0.70
     Davidson diagonalization with overlap
     ethr =  3.92E-03,  avg # of iterations =  6.7

     total cpu time spent up to now is       16.0 secs

     total energy              =   -1467.12098659 Ry
     estimated scf accuracy    <       3.62829603 Ry

     iteration #  3     ecut=    70.00 Ry     beta= 0.70
     Davidson diagonalization with overlap
     ethr =  3.92E-03,  avg # of iterations =  2.7

     total cpu time spent up to now is       20.7 secs

     total energy              =   -1467.38005699 Ry
     estimated scf accuracy    <       0.41853875 Ry

     iteration #  4     ecut=    70.00 Ry     beta= 0.70
     Davidson diagonalization with overlap
     ethr =  9.73E-04,  avg # of iterations =  5.2

     total cpu time spent up to now is       26.2 secs

     total energy              =   -1467.74574807 Ry
     estimated scf accuracy    <       0.16802933 Ry

     iteration #  5     ecut=    70.00 Ry     beta= 0.70
     Davidson diagonalization with overlap
     ethr =  3.91E-04,  avg # of iterations =  2.8

     total cpu time spent up to now is       30.6 secs

     total energy              =   -1467.72705275 Ry
     estimated scf accuracy    <       0.05238624 Ry

     iteration #  6     ecut=    70.00 Ry     beta= 0.70
     Davidson diagonalization with overlap
     c_bands:  2 eigenvalues not converged
     ethr =  1.22E-04,  avg # of iterations = 10.4

     total cpu time spent up to now is       37.1 secs

     total energy              =   -1467.75558139 Ry
     estimated scf accuracy    <       0.01130893 Ry

     iteration #  7     ecut=    70.00 Ry     beta= 0.70
     Davidson diagonalization with overlap
     c_bands:  1 eigenvalues not converged
     ethr =  2.63E-05,  avg # of iterations =  5.5

     total cpu time spent up to now is       42.1 secs

     total energy              =   -1467.75195946 Ry
     estimated scf accuracy    <       0.01620597 Ry

     iteration #  8     ecut=    70.00 Ry     beta= 0.70
     Davidson diagonalization with overlap
     ethr =  2.63E-05,  avg # of iterations =  2.7

     total cpu time spent up to now is       46.6 secs

     total energy              =   -1467.75057327 Ry
     estimated scf accuracy    <       0.00542492 Ry

     iteration #  9     ecut=    70.00 Ry     beta= 0.70
     Davidson diagonalization with overlap
     ethr =  1.26E-05,  avg # of iterations =  4.1

     total cpu time spent up to now is       51.8 secs

     total energy              =   -1467.75171189 Ry
     estimated scf accuracy    <       0.00013581 Ry

     iteration # 10     ecut=    70.00 Ry     beta= 0.70
     Davidson diagonalization with overlap
     c_bands:  1 eigenvalues not converged
     ethr =  3.16E-07,  avg # of iterations =  8.4

     total cpu time spent up to now is       58.3 secs

     total energy              =   -1467.75208044 Ry
     estimated scf accuracy    <       0.00026882 Ry

     iteration # 11     ecut=    70.00 Ry     beta= 0.70
     Davidson diagonalization with overlap
     ethr =  3.16E-07,  avg # of iterations =  2.4

     total cpu time spent up to now is       62.6 secs

     total energy              =   -1467.75198100 Ry
     estimated scf accuracy    <       0.00014346 Ry

     iteration # 12     ecut=    70.00 Ry     beta= 0.70
     Davidson diagonalization with overlap
     ethr =  3.16E-07,  avg # of iterations =  5.0

     total cpu time spent up to now is       68.3 secs

     total energy              =   -1467.75204110 Ry
     estimated scf accuracy    <       0.00016687 Ry

     iteration # 13     ecut=    70.00 Ry     beta= 0.70
     Davidson diagonalization with overlap
     ethr =  3.16E-07,  avg # of iterations =  1.1

     total cpu time spent up to now is       72.9 secs

     total energy              =   -1467.75204077 Ry
     estimated scf accuracy    <       0.00003041 Ry

     iteration # 14     ecut=    70.00 Ry     beta= 0.70
     Davidson diagonalization with overlap
     ethr =  7.07E-08,  avg # of iterations =  4.9

     total cpu time spent up to now is       78.0 secs

     total energy              =   -1467.75205913 Ry
     estimated scf accuracy    <       0.00000570 Ry

     iteration # 15     ecut=    70.00 Ry     beta= 0.70
     Davidson diagonalization with overlap
     ethr =  1.33E-08,  avg # of iterations =  1.9

     total cpu time spent up to now is       82.4 secs

     total energy              =   -1467.75205907 Ry
     estimated scf accuracy    <       0.00000204 Ry

     iteration # 16     ecut=    70.00 Ry     beta= 0.70
     Davidson diagonalization with overlap
     ethr =  4.74E-09,  avg # of iterations =  2.6

     total cpu time spent up to now is       87.1 secs

     total energy              =   -1467.75205920 Ry
     estimated scf accuracy    <       0.00000035 Ry

     iteration # 17     ecut=    70.00 Ry     beta= 0.70
     Davidson diagonalization with overlap
     ethr =  8.13E-10,  avg # of iterations =  5.0

     total cpu time spent up to now is       92.8 secs

     total energy              =   -1467.75205940 Ry
     estimated scf accuracy    <       0.00000016 Ry

     iteration # 18     ecut=    70.00 Ry     beta= 0.70
     Davidson diagonalization with overlap
     c_bands:  1 eigenvalues not converged
     ethr =  3.66E-10,  avg # of iterations =  5.9

     total cpu time spent up to now is       98.2 secs

     End of self-consistent calculation

          k = 0.0000 0.0000 0.0000 (  5377 PWs)   bands (ev):

   -15.9837 -12.0250 -12.0250 -11.4651 -11.4651 -11.4651  -8.1982  -5.3588
    -5.3588  -1.1332  -1.1332  -1.1332   4.8660   4.8660   4.8660   5.0897
     8.5964   8.5964   8.5964   8.9131   8.9131   8.9131  14.1508  14.1508
    15.6419  16.2557

          k = 0.0000 0.0000 0.2000 (  5334 PWs)   bands (ev):

   -15.9703 -12.0244 -11.9497 -11.4695 -11.4695 -11.4649  -8.0953  -5.7720
    -5.3535  -1.0931  -1.0931  -1.0604   3.3165   4.8585   4.8585   6.9219
     8.3776   8.5067   8.5067   8.8219   8.8219   9.2025  14.6688  14.6945
    16.3565  16.6431

          k = 0.0000 0.0000 0.4000 (  5354 PWs)   bands (ev):

   -15.9485 -12.0235 -11.8242 -11.4768 -11.4768 -11.4646  -7.7670  -6.5806
    -5.3448  -1.0262  -1.0262  -0.9786   2.5485   4.8336   4.8336   7.3435
     8.0710   8.4337   8.4337   8.6385   8.6385  10.9705  15.5417  15.5917
    16.5463  17.2143

          k = 0.0000 0.2000 0.2000 (  5325 PWs)   bands (ev):

   -15.9582 -11.9877 -11.9075 -11.4735 -11.4694 -11.4692  -7.9890  -5.9220
    -5.5737  -1.1206  -1.0591  -1.0054   2.3012   4.8908   5.9279   7.0624
     8.0824   8.4047   8.6265   8.7059   9.0256   9.5400  14.9958  15.2530
    16.4607  16.7349

          k = 0.0000 0.2000 0.4000 (  5336 PWs)   bands (ev):

   -15.9384 -11.9749 -11.7879 -11.4797 -11.4764 -11.4689  -7.6493  -6.6107
    -5.6450  -1.0928  -1.0192  -1.0029   1.5667   4.9355   6.3412   7.2438
     7.9927   8.3124   8.4754   8.5884   8.9628  11.2597  15.7310  16.1223
    16.7882  16.8881

          k = 0.0000 0.4000 0.4000 (  5340 PWs)   bands (ev):

   -15.9221 -11.9306 -11.6882 -11.4844 -11.4759 -11.4757  -7.2817  -6.7369
    -6.2499  -1.1561  -1.1199  -0.9644   0.7783   5.1146   7.0300   7.9217
     8.1162   8.1294   8.2036   8.7724   9.3173  12.3819  15.9816  16.4634
    16.4714  16.9112

          k = 0.2000 0.2000 0.2000 (  5344 PWs)   bands (ev):

   -15.9470 -11.9070 -11.9070 -11.4738 -11.4738 -11.4727  -7.8837  -5.9056
    -5.9056  -1.1312  -1.1312  -0.9470   1.4512   5.9541   5.9541   7.0790
     8.0953   8.0953   8.8813   8.9477   8.9477   9.8496  15.3868  15.3868
    16.3844  16.8136

          k = 0.2000 0.2000 0.4000 (  5341 PWs)   bands (ev):

   -15.9288 -11.9060 -11.7706 -11.4814 -11.4787 -11.4733  -7.5450  -6.6180
    -5.8787  -1.1493  -1.1336  -0.9930   0.7169   5.9893   6.7145   7.2823
     7.9194   8.1640   8.7661   8.7908   9.0130  11.4719  15.7225  15.9502
    16.5808  16.7224

          k = 0.2000 0.4000 0.4000 (  5361 PWs)   bands (ev):

   -15.9131 -11.8414 -11.6879 -11.4861 -11.4808 -11.4802  -7.2164  -6.7102
    -6.3636  -1.2277  -1.2194  -1.0774  -0.0972   6.4527   7.2978   7.8962
     7.9370   8.2384   8.7410   8.9527   9.3314  12.4846  15.3621  15.3914
    15.9329  16.8214

          k = 0.4000 0.4000 0.4000 (  5358 PWs)   bands (ev):

   -15.8984 -11.6875 -11.6875 -11.4888 -11.4888 -11.4873  -7.0130  -6.6660
    -6.6660  -1.3428  -1.3428  -1.2804  -1.0341   7.7157   7.9294   7.9294
     8.3188   8.3188   9.2754   9.2754   9.3872  12.9992  14.3283  14.3283
    15.1181  17.8331

     the Fermi energy is    11.4129 ev

!    total energy              =   -1467.75205943 Ry
     total all-electron energy =    -59784.843842 Ry
     estimated scf accuracy    <       0.00000007 Ry
     smearing contrib. (-TS)   =      -0.00114238 Ry
     internal energy E=F+TS    =   -1467.75091705 Ry

     The total energy is F=E-TS. E is the sum of the following terms:
     one-electron contribution =     -75.11218590 Ry
     hartree contribution      =      71.16536892 Ry
     xc contribution           =     -75.53653229 Ry
     ewald contribution        =    -227.93497361 Ry
     one-center paw contrib.   =   -1160.33259417 Ry

     convergence has been achieved in  18 iterations

     Forces acting on atoms (cartesian axes, Ry/au):

     atom    1 type  1   force =     0.00000000    0.00000000    0.00000000
     atom    2 type  2   force =     0.00000000    0.00000000    0.00000000
     atom    3 type  3   force =     0.00000000    0.00000000    0.00000000
     atom    4 type  3   force =     0.00000000    0.00000000    0.00000000
     atom    5 type  3   force =     0.00000000    0.00000000    0.00000000

     Total force =     0.000000     Total SCF correction =     0.000000


     Computing stress (Cartesian axis) and pressure

          total   stress  (Ry/bohr**3)                   (kbar)     P=       99.94
   0.00067935   0.00000000   0.00000000           99.94        0.00        0.00
   0.00000000   0.00067935   0.00000000            0.00       99.94        0.00
   0.00000000   0.00000000   0.00067935            0.00        0.00       99.94


     init_run     :      3.76s CPU      4.11s WALL (       1 calls)
     electrons    :     86.56s CPU     93.17s WALL (       1 calls)
     forces       :      1.20s CPU      1.34s WALL (       1 calls)
     stress       :      6.76s CPU      7.19s WALL (       1 calls)

     Called by init_run:
     wfcinit      :      0.93s CPU      0.95s WALL (       1 calls)
     potinit      :      0.81s CPU      0.84s WALL (       1 calls)
     hinit0       :      1.46s CPU      1.52s WALL (       1 calls)

     Called by electrons:
     c_bands      :     48.82s CPU     49.54s WALL (      18 calls)
     sum_band     :     17.47s CPU     20.50s WALL (      18 calls)
     v_of_rho     :      2.10s CPU      2.17s WALL (      19 calls)
     newd         :      8.56s CPU     11.46s WALL (      19 calls)
     PAW_pot      :     10.10s CPU     10.17s WALL (      19 calls)
     mix_rho      :      0.34s CPU      0.34s WALL (      18 calls)

     Called by c_bands:
     init_us_2    :      0.92s CPU      0.94s WALL (     390 calls)
     init_us_2:cp :      0.92s CPU      0.94s WALL (     390 calls)
     cegterg      :     46.71s CPU     47.39s WALL (     180 calls)

     Called by *egterg:
     cdiaghg      :      1.27s CPU      1.28s WALL (    1008 calls)
     h_psi        :     37.76s CPU     38.30s WALL (    1018 calls)
     s_psi        :      1.56s CPU      1.59s WALL (    1018 calls)
     g_psi        :      0.19s CPU      0.20s WALL (     828 calls)

     Called by h_psi:
     h_psi:calbec :      1.87s CPU      1.90s WALL (    1018 calls)
     vloc_psi     :     33.99s CPU     34.47s WALL (    1018 calls)
     add_vuspsi   :      1.72s CPU      1.74s WALL (    1018 calls)

     General routines
     calbec       :      2.58s CPU      2.63s WALL (    1248 calls)
     fft          :      1.50s CPU      1.55s WALL (     270 calls)
     ffts         :      0.16s CPU      0.16s WALL (      37 calls)
     fftw         :     36.25s CPU     36.77s WALL (   31006 calls)
     interpolate  :      0.22s CPU      0.23s WALL (      19 calls)

     Parallel routines

     PWSCF        :   1m39.21s CPU   1m46.77s WALL


   This run was terminated on:   2:31:17   6May2024            

=------------------------------------------------------------------------------=
   JOB DONE.
=------------------------------------------------------------------------------=
