
     Program PWSCF v.7.1 starts on  6May2024 at  7:13:25 

     This program is part of the open-source Quantum ESPRESSO suite
     for quantum simulation of materials; please cite
         "P. Giannozzi et al., J. Phys.:Condens. Matter 21 395502 (2009);
         "P. Giannozzi et al., J. Phys.:Condens. Matter 29 465901 (2017);
         "P. Giannozzi et al., J. Chem. Phys. 152 154105 (2020);
          URL http://www.quantum-espresso.org", 
     in publications or presentations arising from this work. More details at
     http://www.quantum-espresso.org/quote

     Parallel version (MPI), running on     2 processors

     MPI processes distributed on     1 nodes
     13501 MiB available memory on the printing compute node when the environment starts

     Waiting for input...
     Reading input from standard input
Warning: card &CELL ignored
Warning: card / ignored

     Current dimensions of program PWSCF are:
     Max number of different atomic species (ntypx) = 10
     Max number of k-points (npk) =  40000
     Max angular momentum in pseudopotentials (lmaxx) =  4
     file Ba.pbe-spn-kjpaw_psl.1.0.0.UPF: wavefunction(s)  5S 6S renormalized
     file Bi.pbe-dn-kjpaw_psl.1.0.0.UPF: wavefunction(s)  6P 5D renormalized
     file N.pbe-n-kjpaw_psl.1.0.0.UPF: wavefunction(s)  2S renormalized
     file O.pbe-n-kjpaw_psl.1.0.0.UPF: wavefunction(s)  2S 2P renormalized
     Message from routine setup:
     using ibrav=0 with symmetry is DISCOURAGED, use correct ibrav instead

     R & G space division:  proc/nbgrp/npool/nimage =       2
     Subspace diagonalization in iterative solution of the eigenvalue problem:
     a serial algorithm will be used


     Parallelization info
     --------------------
     sticks:   dense  smooth     PW     G-vecs:    dense   smooth      PW
     Min        1498     742    210                61904    21861    3308
     Max        1499     747    211                61905    21862    3311
     Sum        2997    1489    421               123809    43723    6619

     Using Slab Decomposition



     bravais-lattice index     =            0
     lattice parameter (alat)  =       8.2014  a.u.
     unit-cell volume          =     551.6528 (a.u.)^3
     number of atoms/cell      =            5
     number of atomic types    =            4
     number of electrons       =        42.00
     number of Kohn-Sham states=           21
     kinetic-energy cutoff     =      70.0000  Ry
     charge density cutoff     =     560.0000  Ry
     scf convergence threshold =      1.0E-07
     mixing beta               =       0.7000
     number of iterations used =            8  plain     mixing
     Exchange-correlation= SLA  PW   PBX  PBC
                           (   1   4   3   4   0   0   0)

     celldm(1)=   8.201411  celldm(2)=   0.000000  celldm(3)=   0.000000
     celldm(4)=   0.000000  celldm(5)=   0.000000  celldm(6)=   0.000000

     crystal axes: (cart. coord. in units of alat)
               a(1) = (   1.000000   0.000000   0.000000 )  
               a(2) = (   0.000000   1.000000   0.000000 )  
               a(3) = (   0.000000   0.000000   1.000000 )  

     reciprocal axes: (cart. coord. in units 2 pi/alat)
               b(1) = (  1.000000  0.000000  0.000000 )  
               b(2) = (  0.000000  1.000000  0.000000 )  
               b(3) = (  0.000000  0.000000  1.000000 )  


     PseudoPot. # 1 for Ba read from file:
     /home/bond/Software/qe-7.1/pseudo/Ba.pbe-spn-kjpaw_psl.1.0.0.UPF
     MD5 check sum: 7cfe25f1fe7574a4710541d5a11d6531
     Pseudo is Projector augmented-wave + core cor, Zval = 10.0
     Generated using &quot;atomic&quot; code by A. Dal Corso  v.6.2.2
     Shape of augmentation charge: PSQ
     Using radial grid of 1251 points,  7 beta functions with: 
                l(1) =   0
                l(2) =   0
                l(3) =   0
                l(4) =   1
                l(5) =   1
                l(6) =   2
                l(7) =   2
     Q(r) pseudized with 0 coefficients 


     PseudoPot. # 2 for Bi read from file:
     /home/bond/Software/qe-7.1/pseudo/Bi.pbe-dn-kjpaw_psl.1.0.0.UPF
     MD5 check sum: 266ded784ae3bc462508ed03f0f37963
     Pseudo is Projector augmented-wave + core cor, Zval = 15.0
     Generated using &quot;atomic&quot; code by A. Dal Corso  v.6.2.2
     Shape of augmentation charge: PSQ
     Using radial grid of 1283 points,  6 beta functions with: 
                l(1) =   0
                l(2) =   0
                l(3) =   1
                l(4) =   1
                l(5) =   2
                l(6) =   2
     Q(r) pseudized with 0 coefficients 


     PseudoPot. # 3 for N  read from file:
     /home/bond/Software/qe-7.1/pseudo/N.pbe-n-kjpaw_psl.1.0.0.UPF
     MD5 check sum: 14c48229446f9f2d411169a3abcbc3fa
     Pseudo is Projector augmented-wave + core cor, Zval =  5.0
     Generated using &quot;atomic&quot; code by A. Dal Corso  v.6.3
     Shape of augmentation charge: PSQ
     Using radial grid of 1085 points,  4 beta functions with: 
                l(1) =   0
                l(2) =   0
                l(3) =   1
                l(4) =   1
     Q(r) pseudized with 0 coefficients 


     PseudoPot. # 4 for O  read from file:
     /home/bond/Software/qe-7.1/pseudo/O.pbe-n-kjpaw_psl.1.0.0.UPF
     MD5 check sum: e99d9cef9b487d1ca56f5b95ecd0fd7a
     Pseudo is Projector augmented-wave + core cor, Zval =  6.0
     Generated using &quot;atomic&quot; code by A. Dal Corso  v.6.3
     Shape of augmentation charge: PSQ
     Using radial grid of 1095 points,  4 beta functions with: 
                l(1) =   0
                l(2) =   0
                l(3) =   1
                l(4) =   1
     Q(r) pseudized with 0 coefficients 


     atomic species   valence    mass     pseudopotential
        Ba            10.00   137.32700     Ba( 1.00)
        Bi            15.00   208.98040     Bi( 1.00)
        N              5.00    14.00700     N ( 1.00)
        O              6.00    15.99900     O ( 1.00)

     16 Sym. Ops., with inversion, found



   Cartesian axes

     site n.     atom                  positions (alat units)
         1           Ba  tau(   1) = (   0.5000000   0.5000000   0.5000000  )
         2           Bi  tau(   2) = (   0.0000000   0.0000000   0.0000000  )
         3           O   tau(   3) = (   0.0000000   0.0000000   0.5000000  )
         4           O   tau(   4) = (   0.5000000   0.0000000   0.0000000  )
         5           N   tau(   5) = (   0.0000000   0.5000000   0.0000000  )

     number of k points=    18
                       cart. coord. in units 2pi/alat
        k(    1) = (   0.0000000   0.0000000   0.0000000), wk =   0.0160000
        k(    2) = (   0.0000000   0.0000000   0.2000000), wk =   0.0640000
        k(    3) = (   0.0000000   0.0000000   0.4000000), wk =   0.0640000
        k(    4) = (   0.0000000   0.2000000   0.2000000), wk =   0.1280000
        k(    5) = (   0.0000000   0.2000000   0.4000000), wk =   0.1280000
        k(    6) = (   0.0000000   0.4000000   0.4000000), wk =   0.1280000
        k(    7) = (   0.2000000   0.2000000   0.2000000), wk =   0.1280000
        k(    8) = (   0.2000000   0.2000000   0.4000000), wk =   0.2560000
        k(    9) = (   0.2000000   0.4000000   0.4000000), wk =   0.2560000
        k(   10) = (   0.4000000   0.4000000   0.4000000), wk =   0.1280000
        k(   11) = (   0.0000000   0.2000000   0.0000000), wk =   0.0320000
        k(   12) = (   0.0000000   0.4000000   0.0000000), wk =   0.0320000
        k(   13) = (   0.2000000   0.0000000   0.2000000), wk =   0.0640000
        k(   14) = (   0.2000000   0.4000000   0.0000000), wk =   0.1280000
        k(   15) = (   0.4000000   0.0000000   0.2000000), wk =   0.1280000
        k(   16) = (   0.4000000   0.0000000   0.4000000), wk =   0.0640000
        k(   17) = (   0.2000000   0.4000000   0.2000000), wk =   0.1280000
        k(   18) = (   0.4000000   0.2000000   0.4000000), wk =   0.1280000

     Dense  grid:   123809 G-vectors     FFT dimensions: (  64,  64,  64)

     Smooth grid:    43723 G-vectors     FFT dimensions: (  45,  45,  45)

     Estimated max dynamical RAM per process >     277.19 MB

     Estimated total dynamical RAM >     554.37 MB

     Initial potential from superposition of free atoms

     starting charge      41.9822, renormalised to      42.0000
     Starting wfcs are   26 randomized atomic wfcs
     Checking if some PAW data can be deallocated... 

     total cpu time spent up to now is        6.6 secs

     Self-consistent Calculation

     iteration #  1     ecut=    70.00 Ry     beta= 0.70
     Davidson diagonalization with overlap
     ethr =  1.00E-02,  avg # of iterations =  1.9

     total cpu time spent up to now is       12.5 secs

     total energy              =   -1453.13263123 Ry
     estimated scf accuracy    <       1.63504650 Ry

     iteration #  2     ecut=    70.00 Ry     beta= 0.70
     Davidson diagonalization with overlap
     ethr =  3.89E-03,  avg # of iterations =  5.8

     total cpu time spent up to now is       20.3 secs

     total energy              =   -1453.75680436 Ry
     estimated scf accuracy    <       2.42135615 Ry

     iteration #  3     ecut=    70.00 Ry     beta= 0.70
     Davidson diagonalization with overlap
     ethr =  3.89E-03,  avg # of iterations =  2.4

     total cpu time spent up to now is       26.6 secs

     total energy              =   -1453.90320487 Ry
     estimated scf accuracy    <       0.38630041 Ry

     iteration #  4     ecut=    70.00 Ry     beta= 0.70
     Davidson diagonalization with overlap
     ethr =  9.20E-04,  avg # of iterations =  5.3

     total cpu time spent up to now is       33.7 secs

     total energy              =   -1454.12721896 Ry
     estimated scf accuracy    <       0.05098175 Ry

     iteration #  5     ecut=    70.00 Ry     beta= 0.70
     Davidson diagonalization with overlap
     ethr =  1.21E-04,  avg # of iterations =  5.3

     total cpu time spent up to now is       40.8 secs

     total energy              =   -1454.12952471 Ry
     estimated scf accuracy    <       0.07648207 Ry

     iteration #  6     ecut=    70.00 Ry     beta= 0.70
     Davidson diagonalization with overlap
     ethr =  1.21E-04,  avg # of iterations =  1.6

     total cpu time spent up to now is       46.7 secs

     total energy              =   -1454.11445650 Ry
     estimated scf accuracy    <       0.03716449 Ry

     iteration #  7     ecut=    70.00 Ry     beta= 0.70
     Davidson diagonalization with overlap
     ethr =  8.85E-05,  avg # of iterations =  5.3

     total cpu time spent up to now is       54.3 secs

     total energy              =   -1454.12956241 Ry
     estimated scf accuracy    <       0.00355850 Ry

     iteration #  8     ecut=    70.00 Ry     beta= 0.70
     Davidson diagonalization with overlap
     ethr =  8.47E-06,  avg # of iterations =  6.0

     total cpu time spent up to now is       61.3 secs

     total energy              =   -1454.13176540 Ry
     estimated scf accuracy    <       0.00709615 Ry

     iteration #  9     ecut=    70.00 Ry     beta= 0.70
     Davidson diagonalization with overlap
     ethr =  8.47E-06,  avg # of iterations =  1.4

     total cpu time spent up to now is       66.8 secs

     total energy              =   -1454.13653807 Ry
     estimated scf accuracy    <       0.00935601 Ry

     iteration # 10     ecut=    70.00 Ry     beta= 0.70
     Davidson diagonalization with overlap
     ethr =  8.47E-06,  avg # of iterations =  9.1

     total cpu time spent up to now is       75.1 secs

     total energy              =   -1454.12319185 Ry
     estimated scf accuracy    <       0.05237106 Ry

     iteration # 11     ecut=    70.00 Ry     beta= 0.70
     Davidson diagonalization with overlap
     ethr =  8.47E-06,  avg # of iterations =  9.2

     total cpu time spent up to now is       84.0 secs

     total energy              =   -1454.12832901 Ry
     estimated scf accuracy    <       0.00154510 Ry

     iteration # 12     ecut=    70.00 Ry     beta= 0.70
     Davidson diagonalization with overlap
     c_bands:  1 eigenvalues not converged
     c_bands:  1 eigenvalues not converged
     c_bands:  1 eigenvalues not converged
     ethr =  3.68E-06,  avg # of iterations =  9.8

     total cpu time spent up to now is       92.3 secs

     total energy              =   -1454.13001126 Ry
     estimated scf accuracy    <       0.00403867 Ry

     iteration # 13     ecut=    70.00 Ry     beta= 0.70
     Davidson diagonalization with overlap
     ethr =  3.68E-06,  avg # of iterations =  2.2

     total cpu time spent up to now is       98.1 secs

     total energy              =   -1454.13015879 Ry
     estimated scf accuracy    <       0.00224144 Ry

     iteration # 14     ecut=    70.00 Ry     beta= 0.70
     Davidson diagonalization with overlap
     ethr =  3.68E-06,  avg # of iterations =  1.2

     total cpu time spent up to now is      103.5 secs

     total energy              =   -1454.12968300 Ry
     estimated scf accuracy    <       0.00217864 Ry

     iteration # 15     ecut=    70.00 Ry     beta= 0.70
     Davidson diagonalization with overlap
     ethr =  3.68E-06,  avg # of iterations =  3.6

     total cpu time spent up to now is      109.3 secs

     total energy              =   -1454.12977423 Ry
     estimated scf accuracy    <       0.00041702 Ry

     iteration # 16     ecut=    70.00 Ry     beta= 0.70
     Davidson diagonalization with overlap
     ethr =  9.93E-07,  avg # of iterations =  6.9

     total cpu time spent up to now is      117.0 secs

     total energy              =   -1454.13002541 Ry
     estimated scf accuracy    <       0.00027561 Ry

     iteration # 17     ecut=    70.00 Ry     beta= 0.70
     Davidson diagonalization with overlap
     ethr =  6.56E-07,  avg # of iterations =  1.4

     total cpu time spent up to now is      122.3 secs

     total energy              =   -1454.13003561 Ry
     estimated scf accuracy    <       0.00015998 Ry

     iteration # 18     ecut=    70.00 Ry     beta= 0.70
     Davidson diagonalization with overlap
     ethr =  3.81E-07,  avg # of iterations =  1.8

     total cpu time spent up to now is      127.7 secs

     total energy              =   -1454.13003937 Ry
     estimated scf accuracy    <       0.00015716 Ry

     iteration # 19     ecut=    70.00 Ry     beta= 0.70
     Davidson diagonalization with overlap
     ethr =  3.74E-07,  avg # of iterations =  1.1

     total cpu time spent up to now is      133.1 secs

     total energy              =   -1454.13011896 Ry
     estimated scf accuracy    <       0.00014796 Ry

     iteration # 20     ecut=    70.00 Ry     beta= 0.70
     Davidson diagonalization with overlap
     c_bands:  1 eigenvalues not converged
     ethr =  3.52E-07,  avg # of iterations =  7.6

     total cpu time spent up to now is      140.4 secs

     total energy              =   -1454.13028029 Ry
     estimated scf accuracy    <       0.00136945 Ry

     iteration # 21     ecut=    70.00 Ry     beta= 0.70
     Davidson diagonalization with overlap
     ethr =  3.52E-07,  avg # of iterations =  2.1

     total cpu time spent up to now is      145.9 secs

     total energy              =   -1454.13026702 Ry
     estimated scf accuracy    <       0.00142907 Ry

     iteration # 22     ecut=    70.00 Ry     beta= 0.70
     Davidson diagonalization with overlap
     ethr =  3.52E-07,  avg # of iterations =  1.1

     total cpu time spent up to now is      151.1 secs

     total energy              =   -1454.13014831 Ry
     estimated scf accuracy    <       0.00141703 Ry

     iteration # 23     ecut=    70.00 Ry     beta= 0.70
     Davidson diagonalization with overlap
     ethr =  3.52E-07,  avg # of iterations =  1.3

     total cpu time spent up to now is      156.4 secs

     total energy              =   -1454.13006714 Ry
     estimated scf accuracy    <       0.00116409 Ry

     iteration # 24     ecut=    70.00 Ry     beta= 0.70
     Davidson diagonalization with overlap
     ethr =  3.52E-07,  avg # of iterations =  2.0

     total cpu time spent up to now is      162.5 secs

     total energy              =   -1454.13001071 Ry
     estimated scf accuracy    <       0.00084733 Ry

     iteration # 25     ecut=    70.00 Ry     beta= 0.70
     Davidson diagonalization with overlap
     c_bands:  1 eigenvalues not converged
     ethr =  3.52E-07,  avg # of iterations =  4.5

     total cpu time spent up to now is      169.2 secs

     total energy              =   -1454.13007627 Ry
     estimated scf accuracy    <       0.00030257 Ry

     iteration # 26     ecut=    70.00 Ry     beta= 0.70
     Davidson diagonalization with overlap
     ethr =  3.52E-07,  avg # of iterations =  1.2

     total cpu time spent up to now is      175.0 secs

     total energy              =   -1454.13001438 Ry
     estimated scf accuracy    <       0.00032912 Ry

     iteration # 27     ecut=    70.00 Ry     beta= 0.70
     Davidson diagonalization with overlap
     ethr =  3.52E-07,  avg # of iterations =  3.0

     total cpu time spent up to now is      181.4 secs

     total energy              =   -1454.12997337 Ry
     estimated scf accuracy    <       0.00013580 Ry

     iteration # 28     ecut=    70.00 Ry     beta= 0.70
     Davidson diagonalization with overlap
     c_bands:  1 eigenvalues not converged
     ethr =  3.23E-07,  avg # of iterations =  6.9

     total cpu time spent up to now is      188.7 secs

     total energy              =   -1454.13001851 Ry
     estimated scf accuracy    <       0.00015405 Ry

     iteration # 29     ecut=    70.00 Ry     beta= 0.70
     Davidson diagonalization with overlap
     ethr =  3.23E-07,  avg # of iterations =  2.2

     total cpu time spent up to now is      194.4 secs

     total energy              =   -1454.13003818 Ry
     estimated scf accuracy    <       0.00006310 Ry

     iteration # 30     ecut=    70.00 Ry     beta= 0.70
     Davidson diagonalization with overlap
     ethr =  1.50E-07,  avg # of iterations =  1.7

     total cpu time spent up to now is      200.3 secs

     total energy              =   -1454.13003308 Ry
     estimated scf accuracy    <       0.00008326 Ry

     iteration # 31     ecut=    70.00 Ry     beta= 0.70
     Davidson diagonalization with overlap
     ethr =  1.50E-07,  avg # of iterations =  1.3

     total cpu time spent up to now is      206.0 secs

     total energy              =   -1454.13000211 Ry
     estimated scf accuracy    <       0.00006821 Ry

     iteration # 32     ecut=    70.00 Ry     beta= 0.70
     Davidson diagonalization with overlap
     c_bands:  1 eigenvalues not converged
     ethr =  1.50E-07,  avg # of iterations =  6.6

     total cpu time spent up to now is      213.2 secs

     total energy              =   -1454.13012517 Ry
     estimated scf accuracy    <       0.00007803 Ry

     iteration # 33     ecut=    70.00 Ry     beta= 0.70
     Davidson diagonalization with overlap
     c_bands:  1 eigenvalues not converged
     ethr =  1.50E-07,  avg # of iterations = 10.8

     total cpu time spent up to now is      222.0 secs

     total energy              =   -1454.13003096 Ry
     estimated scf accuracy    <       0.00156206 Ry

     iteration # 34     ecut=    70.00 Ry     beta= 0.70
     Davidson diagonalization with overlap
     c_bands:  1 eigenvalues not converged
     ethr =  1.50E-07,  avg # of iterations =  6.9

     total cpu time spent up to now is      229.4 secs

     total energy              =   -1454.13001973 Ry
     estimated scf accuracy    <       0.00060691 Ry

     iteration # 35     ecut=    70.00 Ry     beta= 0.70
     Davidson diagonalization with overlap
     ethr =  1.50E-07,  avg # of iterations =  5.4

     total cpu time spent up to now is      235.6 secs

     total energy              =   -1454.13005032 Ry
     estimated scf accuracy    <       0.00019566 Ry

     iteration # 36     ecut=    70.00 Ry     beta= 0.70
     Davidson diagonalization with overlap
     ethr =  1.50E-07,  avg # of iterations =  1.5

     total cpu time spent up to now is      241.0 secs

     total energy              =   -1454.12996117 Ry
     estimated scf accuracy    <       0.00018383 Ry

     iteration # 37     ecut=    70.00 Ry     beta= 0.70
     Davidson diagonalization with overlap
     c_bands:  1 eigenvalues not converged
     ethr =  1.50E-07,  avg # of iterations =  9.5

     total cpu time spent up to now is      249.5 secs

     total energy              =   -1454.13002469 Ry
     estimated scf accuracy    <       0.00014685 Ry

     iteration # 38     ecut=    70.00 Ry     beta= 0.70
     Davidson diagonalization with overlap
     ethr =  1.50E-07,  avg # of iterations =  2.3

     total cpu time spent up to now is      255.0 secs

     total energy              =   -1454.13001048 Ry
     estimated scf accuracy    <       0.00006970 Ry

     iteration # 39     ecut=    70.00 Ry     beta= 0.70
     Davidson diagonalization with overlap
     ethr =  1.50E-07,  avg # of iterations =  5.3

     total cpu time spent up to now is      261.8 secs

     total energy              =   -1454.13002805 Ry
     estimated scf accuracy    <       0.00000195 Ry

     iteration # 40     ecut=    70.00 Ry     beta= 0.70
     Davidson diagonalization with overlap
     c_bands:  1 eigenvalues not converged
     ethr =  4.65E-09,  avg # of iterations =  9.6

     total cpu time spent up to now is      270.3 secs

     total energy              =   -1454.13003798 Ry
     estimated scf accuracy    <       0.00001807 Ry

     iteration # 41     ecut=    70.00 Ry     beta= 0.70
     Davidson diagonalization with overlap
     ethr =  4.65E-09,  avg # of iterations =  2.7

     total cpu time spent up to now is      276.0 secs

     total energy              =   -1454.13003450 Ry
     estimated scf accuracy    <       0.00002991 Ry

     iteration # 42     ecut=    70.00 Ry     beta= 0.70
     Davidson diagonalization with overlap
     ethr =  4.65E-09,  avg # of iterations =  2.6

     total cpu time spent up to now is      281.7 secs

     total energy              =   -1454.13003237 Ry
     estimated scf accuracy    <       0.00001542 Ry

     iteration # 43     ecut=    70.00 Ry     beta= 0.70
     Davidson diagonalization with overlap
     ethr =  4.65E-09,  avg # of iterations =  4.7

     total cpu time spent up to now is      288.0 secs

     total energy              =   -1454.13003079 Ry
     estimated scf accuracy    <       0.00000636 Ry

     iteration # 44     ecut=    70.00 Ry     beta= 0.70
     Davidson diagonalization with overlap
     c_bands:  1 eigenvalues not converged
     ethr =  4.65E-09,  avg # of iterations =  7.5

     total cpu time spent up to now is      295.6 secs

     total energy              =   -1454.13003265 Ry
     estimated scf accuracy    <       0.00000071 Ry

     iteration # 45     ecut=    70.00 Ry     beta= 0.70
     Davidson diagonalization with overlap
     ethr =  1.68E-09,  avg # of iterations =  4.9

     total cpu time spent up to now is      301.8 secs

     total energy              =   -1454.13003235 Ry
     estimated scf accuracy    <       0.00000221 Ry

     iteration # 46     ecut=    70.00 Ry     beta= 0.70
     Davidson diagonalization with overlap
     ethr =  1.68E-09,  avg # of iterations =  1.9

     total cpu time spent up to now is      307.3 secs

     total energy              =   -1454.13003221 Ry
     estimated scf accuracy    <       0.00000120 Ry

     iteration # 47     ecut=    70.00 Ry     beta= 0.70
     Davidson diagonalization with overlap
     ethr =  1.68E-09,  avg # of iterations =  1.9

     total cpu time spent up to now is      312.8 secs

     total energy              =   -1454.13003209 Ry
     estimated scf accuracy    <       0.00000072 Ry

     iteration # 48     ecut=    70.00 Ry     beta= 0.70
     Davidson diagonalization with overlap
     ethr =  1.68E-09,  avg # of iterations =  4.9

     total cpu time spent up to now is      319.1 secs

     End of self-consistent calculation

          k = 0.0000 0.0000 0.0000 (  5449 PWs)   bands (ev):

   -15.9809 -12.8685 -12.7132 -12.3879 -12.3414 -12.3414  -8.1264  -5.9395
    -2.2097  -1.2039  -1.1332  -1.1332   4.4083   4.4083   5.1398   5.2575
     8.2194   8.2979   8.2979   8.9382   9.9633

          k = 0.0000 0.0000 0.2000 (  5478 PWs)   bands (ev):

   -15.9691 -12.8271 -12.6860 -12.3916 -12.3452 -12.3413  -8.0209  -6.2360
    -2.5598  -1.1652  -1.0939  -0.9117   3.4668   4.4098   5.1419   6.7492
     8.1453   8.2418   8.3524   8.8068   9.6852

          k = 0.0000 0.0000 0.4000 (  5458 PWs)   bands (ev):

   -15.9498 -12.7908 -12.6069 -12.3977 -12.3512 -12.3411  -7.6513  -6.9431
    -2.8944  -1.1008  -1.0285  -0.7827   3.0570   4.4040   5.1268   7.1721
     8.1540   8.1603   8.5053   8.6883   9.4477

          k = 0.0000 0.2000 0.2000 (  5429 PWs)   bands (ev):

   -15.9576 -12.8258 -12.6624 -12.3914 -12.3482 -12.3448  -8.0022  -6.2258
    -2.6630  -1.1297  -1.0596  -0.8965   2.1632   4.4227   5.8243   7.0867
     7.9202   8.1103   8.3495   9.6948   9.7463

          k = 0.0000 0.2000 0.4000 (  5440 PWs)   bands (ev):

   -15.9404 -12.7852 -12.5857 -12.3974 -12.3534 -12.3446  -7.6143  -6.9283
    -2.9494  -1.1468  -1.0048  -0.7927   1.6415   4.4770   6.6675   7.2111
     7.7801   7.9985   8.5450   9.3694   9.4130

          k = 0.0000 0.4000 0.4000 (  5456 PWs)   bands (ev):

   -15.9250 -12.7781 -12.5491 -12.3969 -12.3570 -12.3502  -7.5630  -6.8817
    -3.0707  -1.2245  -0.9659  -0.7050   0.3338   4.5999   7.0934   7.6460
     7.7569   7.8724   8.7508   9.2323  10.0324

          k = 0.2000 0.2000 0.2000 (  5467 PWs)   bands (ev):

   -15.9476 -12.7682 -12.6489 -12.3949 -12.3487 -12.3479  -7.9018  -6.4355
    -2.8766  -1.1460  -1.1337  -0.8374   1.4884   5.4604   6.0567   7.0175
     7.8890   8.0836   8.4577   9.5143   9.9266

          k = 0.2000 0.2000 0.4000 (  5476 PWs)   bands (ev):

   -15.9314 -12.7115 -12.5855 -12.4004 -12.3538 -12.3483  -7.5633  -6.9857
    -3.1570  -1.1897  -1.1009  -0.9686   1.0607   5.8005   6.8305   7.0627
     7.8221   8.1748   8.5137   9.3774   9.6676

          k = 0.2000 0.4000 0.4000 (  5470 PWs)   bands (ev):

   -15.9165 -12.7042 -12.5480 -12.4009 -12.3585 -12.3541  -7.5105  -6.9448
    -3.0093  -1.2955  -1.1352  -0.9557  -0.3819   5.9456   7.2778   7.5808
     7.8670   8.1865   8.7181   9.6094  10.1230

          k = 0.4000 0.4000 0.4000 (  5457 PWs)   bands (ev):

   -15.9028 -12.5862 -12.5382 -12.4072 -12.3610 -12.3601  -7.3546  -7.1288
    -2.9634  -1.4453  -1.3919  -1.3326  -1.0243   7.4125   7.7010   7.8237
     7.9062   8.8397   8.8407  10.0983  10.2715

          k = 0.0000 0.2000 0.0000 (  5478 PWs)   bands (ev):

   -15.9682 -12.8681 -12.6899 -12.3878 -12.3451 -12.3451  -8.1163  -5.9348
    -2.3793  -1.1175  -1.0927  -1.0927   3.1343   4.3871   4.3871   7.1336
     8.0263   8.1818   8.1818   9.6471   9.9315

          k = 0.0000 0.4000 0.0000 (  5458 PWs)   bands (ev):

   -15.9473 -12.8674 -12.6523 -12.3876 -12.3510 -12.3510  -8.0964  -5.9271
    -2.6055  -1.0674  -1.0252  -1.0252   2.0645   4.3427   4.3427   7.3451
     7.7511   8.0245   8.0245   9.8808   9.8808

          k = 0.2000 0.0000 0.2000 (  5429 PWs)   bands (ev):

   -15.9582 -12.7686 -12.6741 -12.3948 -12.3451 -12.3448  -7.9263  -6.4488
    -2.8547  -1.1323  -1.1274  -0.8629   2.7128   5.1961   5.4588   6.9358
     8.0394   8.1791   8.4735   8.6549   9.7472

          k = 0.2000 0.4000 0.0000 (  5440 PWs)   bands (ev):

   -15.9388 -12.8242 -12.6238 -12.3911 -12.3533 -12.3507  -7.9688  -6.2070
    -2.8110  -1.1296  -1.0028  -0.8645   1.0765   4.4362   5.9476   7.2799
     7.7648   7.9276   8.2185   9.6112   9.9230

          k = 0.4000 0.0000 0.2000 (  5440 PWs)   bands (ev):

   -15.9406 -12.7180 -12.6062 -12.4000 -12.3509 -12.3446  -7.5979  -7.0042
    -3.2230  -1.0953  -1.0779  -0.9475   2.3618   5.2746   5.9330   6.9438
     7.9916   8.3142   8.4209   8.7946   9.5188

          k = 0.4000 0.0000 0.4000 (  5456 PWs)   bands (ev):

   -15.9255 -12.6128 -12.5868 -12.4037 -12.3505 -12.3504  -7.4292  -7.1864
    -3.7796  -1.1658  -1.1223  -1.0403   1.9309   5.5585   6.6669   7.6261
     7.7788   7.9262   8.8505   9.0182   9.5115

          k = 0.2000 0.4000 0.2000 (  5476 PWs)   bands (ev):

   -15.9303 -12.7676 -12.6078 -12.3949 -12.3548 -12.3525  -7.8586  -6.4138
    -2.8834  -1.1926  -1.1448  -0.7762   0.2703   5.4584   6.4213   7.3136
     7.7836   7.9430   8.3139   9.5719  10.0753

          k = 0.4000 0.2000 0.4000 (  5470 PWs)   bands (ev):

   -15.9169 -12.5866 -12.5846 -12.4051 -12.3545 -12.3542  -7.4012  -7.1646
    -3.5706  -1.2384  -1.2299  -1.1355   0.5648   6.9308   7.0469   7.6558
     7.8211   7.9876   8.8549   9.4466   9.7604

     highest occupied level (ev):    10.2715

!    total energy              =   -1454.13003237 Ry
     total all-electron energy =    -59743.673723 Ry
     estimated scf accuracy    <          7.5E-09 Ry

     The total energy is the sum of the following terms:
     one-electron contribution =     -68.80409297 Ry
     hartree contribution      =      66.06736444 Ry
     xc contribution           =     -73.60194454 Ry
     ewald contribution        =    -219.07781164 Ry
     one-center paw contrib.   =   -1158.71354767 Ry

     convergence has been achieved in  48 iterations

     Forces acting on atoms (cartesian axes, Ry/au):

     atom    1 type  1   force =     0.00000000    0.00000000    0.00000000
     atom    2 type  2   force =     0.00000000    0.00000000    0.00000000
     atom    3 type  4   force =     0.00000000    0.00000000    0.00000000
     atom    4 type  4   force =     0.00000000    0.00000000    0.00000000
     atom    5 type  3   force =     0.00000000    0.00000000    0.00000000

     Total force =     0.000000     Total SCF correction =     0.000000


     Computing stress (Cartesian axis) and pressure

          total   stress  (Ry/bohr**3)                   (kbar)     P=       24.10
   0.00023472   0.00000000   0.00000000           34.53        0.00        0.00
   0.00000000   0.00002205   0.00000000            0.00        3.24        0.00
   0.00000000   0.00000000   0.00023472            0.00        0.00       34.53


     init_run     :      4.86s CPU      5.47s WALL (       1 calls)
     electrons    :    285.42s CPU    312.45s WALL (       1 calls)
     forces       :      1.33s CPU      1.54s WALL (       1 calls)
     stress       :      7.62s CPU      8.33s WALL (       1 calls)

     Called by init_run:
     wfcinit      :      1.72s CPU      1.82s WALL (       1 calls)
     potinit      :      0.81s CPU      0.86s WALL (       1 calls)
     hinit0       :      1.69s CPU      1.80s WALL (       1 calls)

     Called by electrons:
     c_bands      :    175.58s CPU    180.75s WALL (      48 calls)
     sum_band     :     55.46s CPU     66.79s WALL (      48 calls)
     v_of_rho     :      5.24s CPU      5.43s WALL (      49 calls)
     newd         :     23.03s CPU     33.06s WALL (      49 calls)
     PAW_pot      :     25.68s CPU     26.26s WALL (      49 calls)
     mix_rho      :      1.02s CPU      1.05s WALL (      48 calls)

     Called by c_bands:
     init_us_2    :      4.71s CPU      4.86s WALL (    1782 calls)
     init_us_2:cp :      4.70s CPU      4.85s WALL (    1782 calls)
     cegterg      :    165.33s CPU    170.20s WALL (     864 calls)

     Called by *egterg:
     cdiaghg      :      3.87s CPU      3.99s WALL (    4558 calls)
     h_psi        :    134.48s CPU    138.57s WALL (    4576 calls)
     s_psi        :      6.41s CPU      6.56s WALL (    4576 calls)
     g_psi        :      0.69s CPU      0.72s WALL (    3694 calls)

     Called by h_psi:
     h_psi:calbec :      7.56s CPU      7.78s WALL (    4576 calls)
     vloc_psi     :    119.00s CPU    122.64s WALL (    4576 calls)
     add_vuspsi   :      7.25s CPU      7.47s WALL (    4576 calls)

     General routines
     calbec       :      9.98s CPU     10.28s WALL (    5530 calls)
     fft          :      2.87s CPU      2.99s WALL (     660 calls)
     ffts         :      0.26s CPU      0.27s WALL (      97 calls)
     fftw         :    127.12s CPU    130.99s WALL (  114192 calls)
     interpolate  :      0.43s CPU      0.44s WALL (      49 calls)

     Parallel routines

     PWSCF        :   5m 0.30s CPU   5m28.97s WALL


   This run was terminated on:   7:18:54   6May2024            

=------------------------------------------------------------------------------=
   JOB DONE.
=------------------------------------------------------------------------------=
