
     Program PWSCF v.7.1 starts on  6May2024 at  2:31:17 

     This program is part of the open-source Quantum ESPRESSO suite
     for quantum simulation of materials; please cite
         "P. Giannozzi et al., J. Phys.:Condens. Matter 21 395502 (2009);
         "P. Giannozzi et al., J. Phys.:Condens. Matter 29 465901 (2017);
         "P. Giannozzi et al., J. Chem. Phys. 152 154105 (2020);
          URL http://www.quantum-espresso.org", 
     in publications or presentations arising from this work. More details at
     http://www.quantum-espresso.org/quote

     Parallel version (MPI), running on     2 processors

     MPI processes distributed on     1 nodes
     13799 MiB available memory on the printing compute node when the environment starts

     Waiting for input...
     Reading input from standard input
Warning: card &CELL ignored
Warning: card / ignored

     Current dimensions of program PWSCF are:
     Max number of different atomic species (ntypx) = 10
     Max number of k-points (npk) =  40000
     Max angular momentum in pseudopotentials (lmaxx) =  4
     file Ba.pbe-spn-kjpaw_psl.1.0.0.UPF: wavefunction(s)  5S 6S renormalized
     file Bi.pbe-dn-kjpaw_psl.1.0.0.UPF: wavefunction(s)  6P 5D renormalized
     file O.pbe-n-kjpaw_psl.1.0.0.UPF: wavefunction(s)  2S 2P renormalized
     Message from routine setup:
     using ibrav=0 with symmetry is DISCOURAGED, use correct ibrav instead

     R & G space division:  proc/nbgrp/npool/nimage =       2
     Subspace diagonalization in iterative solution of the eigenvalue problem:
     a serial algorithm will be used


     Parallelization info
     --------------------
     sticks:   dense  smooth     PW     G-vecs:    dense   smooth      PW
     Min        1482     740    210                60930    21500    3224
     Max        1483     741    211                60935    21503    3227
     Sum        2965    1481    421               121865    43003    6451

     Using Slab Decomposition



     bravais-lattice index     =            0
     lattice parameter (alat)  =       8.1636  a.u.
     unit-cell volume          =     544.0613 (a.u.)^3
     number of atoms/cell      =            5
     number of atomic types    =            3
     number of electrons       =        43.00
     number of Kohn-Sham states=           26
     kinetic-energy cutoff     =      70.0000  Ry
     charge density cutoff     =     560.0000  Ry
     scf convergence threshold =      1.0E-07
     mixing beta               =       0.7000
     number of iterations used =            8  plain     mixing
     Exchange-correlation= SLA  PW   PBX  PBC
                           (   1   4   3   4   0   0   0)

     celldm(1)=   8.163617  celldm(2)=   0.000000  celldm(3)=   0.000000
     celldm(4)=   0.000000  celldm(5)=   0.000000  celldm(6)=   0.000000

     crystal axes: (cart. coord. in units of alat)
               a(1) = (   1.000000   0.000000   0.000000 )  
               a(2) = (   0.000000   1.000000   0.000000 )  
               a(3) = (   0.000000   0.000000   1.000000 )  

     reciprocal axes: (cart. coord. in units 2 pi/alat)
               b(1) = (  1.000000  0.000000  0.000000 )  
               b(2) = (  0.000000  1.000000  0.000000 )  
               b(3) = (  0.000000  0.000000  1.000000 )  


     PseudoPot. # 1 for Ba read from file:
     /home/bond/Software/qe-7.1/pseudo/Ba.pbe-spn-kjpaw_psl.1.0.0.UPF
     MD5 check sum: 7cfe25f1fe7574a4710541d5a11d6531
     Pseudo is Projector augmented-wave + core cor, Zval = 10.0
     Generated using &quot;atomic&quot; code by A. Dal Corso  v.6.2.2
     Shape of augmentation charge: PSQ
     Using radial grid of 1251 points,  7 beta functions with: 
                l(1) =   0
                l(2) =   0
                l(3) =   0
                l(4) =   1
                l(5) =   1
                l(6) =   2
                l(7) =   2
     Q(r) pseudized with 0 coefficients 


     PseudoPot. # 2 for Bi read from file:
     /home/bond/Software/qe-7.1/pseudo/Bi.pbe-dn-kjpaw_psl.1.0.0.UPF
     MD5 check sum: 266ded784ae3bc462508ed03f0f37963
     Pseudo is Projector augmented-wave + core cor, Zval = 15.0
     Generated using &quot;atomic&quot; code by A. Dal Corso  v.6.2.2
     Shape of augmentation charge: PSQ
     Using radial grid of 1283 points,  6 beta functions with: 
                l(1) =   0
                l(2) =   0
                l(3) =   1
                l(4) =   1
                l(5) =   2
                l(6) =   2
     Q(r) pseudized with 0 coefficients 


     PseudoPot. # 3 for O  read from file:
     /home/bond/Software/qe-7.1/pseudo/O.pbe-n-kjpaw_psl.1.0.0.UPF
     MD5 check sum: e99d9cef9b487d1ca56f5b95ecd0fd7a
     Pseudo is Projector augmented-wave + core cor, Zval =  6.0
     Generated using &quot;atomic&quot; code by A. Dal Corso  v.6.3
     Shape of augmentation charge: PSQ
     Using radial grid of 1095 points,  4 beta functions with: 
                l(1) =   0
                l(2) =   0
                l(3) =   1
                l(4) =   1
     Q(r) pseudized with 0 coefficients 


     atomic species   valence    mass     pseudopotential
        Ba            10.00   137.32700     Ba( 1.00)
        Bi            15.00   208.98040     Bi( 1.00)
        O              6.00    15.99900     O ( 1.00)

     48 Sym. Ops., with inversion, found



   Cartesian axes

     site n.     atom                  positions (alat units)
         1           Ba  tau(   1) = (   0.5000000   0.5000000   0.5000000  )
         2           Bi  tau(   2) = (   0.0000000   0.0000000   0.0000000  )
         3           O   tau(   3) = (   0.0000000   0.0000000   0.5000000  )
         4           O   tau(   4) = (   0.5000000   0.0000000   0.0000000  )
         5           O   tau(   5) = (   0.0000000   0.5000000   0.0000000  )

     number of k points=    10  Methfessel-Paxton smearing, width (Ry)=  0.0200
                       cart. coord. in units 2pi/alat
        k(    1) = (   0.0000000   0.0000000   0.0000000), wk =   0.0160000
        k(    2) = (   0.0000000   0.0000000   0.2000000), wk =   0.0960000
        k(    3) = (   0.0000000   0.0000000   0.4000000), wk =   0.0960000
        k(    4) = (   0.0000000   0.2000000   0.2000000), wk =   0.1920000
        k(    5) = (   0.0000000   0.2000000   0.4000000), wk =   0.3840000
        k(    6) = (   0.0000000   0.4000000   0.4000000), wk =   0.1920000
        k(    7) = (   0.2000000   0.2000000   0.2000000), wk =   0.1280000
        k(    8) = (   0.2000000   0.2000000   0.4000000), wk =   0.3840000
        k(    9) = (   0.2000000   0.4000000   0.4000000), wk =   0.3840000
        k(   10) = (   0.4000000   0.4000000   0.4000000), wk =   0.1280000

     Dense  grid:   121865 G-vectors     FFT dimensions: (  64,  64,  64)

     Smooth grid:    43003 G-vectors     FFT dimensions: (  45,  45,  45)

     Estimated max dynamical RAM per process >     264.15 MB

     Estimated total dynamical RAM >     528.29 MB

     Initial potential from superposition of free atoms

     starting charge      42.9822, renormalised to      43.0000
     Starting wfcs are   26 randomized atomic wfcs
     Checking if some PAW data can be deallocated... 

     total cpu time spent up to now is        5.1 secs

     Self-consistent Calculation

     iteration #  1     ecut=    70.00 Ry     beta= 0.70
     Davidson diagonalization with overlap
     ethr =  1.00E-02,  avg # of iterations =  6.6

     total cpu time spent up to now is       10.1 secs

     total energy              =   -1466.69548807 Ry
     estimated scf accuracy    <       1.68657865 Ry

     iteration #  2     ecut=    70.00 Ry     beta= 0.70
     Davidson diagonalization with overlap
     ethr =  3.92E-03,  avg # of iterations =  5.7

     total cpu time spent up to now is       15.9 secs

     total energy              =   -1467.17430870 Ry
     estimated scf accuracy    <       3.44692766 Ry

     iteration #  3     ecut=    70.00 Ry     beta= 0.70
     Davidson diagonalization with overlap
     ethr =  3.92E-03,  avg # of iterations =  2.2

     total cpu time spent up to now is       20.5 secs

     total energy              =   -1467.41345460 Ry
     estimated scf accuracy    <       0.37799790 Ry

     iteration #  4     ecut=    70.00 Ry     beta= 0.70
     Davidson diagonalization with overlap
     ethr =  8.79E-04,  avg # of iterations =  7.2

     total cpu time spent up to now is       26.4 secs

     total energy              =   -1467.75069902 Ry
     estimated scf accuracy    <       0.20120882 Ry

     iteration #  5     ecut=    70.00 Ry     beta= 0.70
     Davidson diagonalization with overlap
     ethr =  4.68E-04,  avg # of iterations =  1.6

     total cpu time spent up to now is       30.7 secs

     total energy              =   -1467.72549165 Ry
     estimated scf accuracy    <       0.06888727 Ry

     iteration #  6     ecut=    70.00 Ry     beta= 0.70
     Davidson diagonalization with overlap
     ethr =  1.60E-04,  avg # of iterations =  7.2

     total cpu time spent up to now is       36.4 secs

     total energy              =   -1467.75608498 Ry
     estimated scf accuracy    <       0.00816836 Ry

     iteration #  7     ecut=    70.00 Ry     beta= 0.70
     Davidson diagonalization with overlap
     c_bands:  1 eigenvalues not converged
     c_bands:  1 eigenvalues not converged
     ethr =  1.90E-05,  avg # of iterations = 11.7

     total cpu time spent up to now is       42.3 secs

     total energy              =   -1467.75524645 Ry
     estimated scf accuracy    <       0.01098897 Ry

     iteration #  8     ecut=    70.00 Ry     beta= 0.70
     Davidson diagonalization with overlap
     ethr =  1.90E-05,  avg # of iterations =  1.5

     total cpu time spent up to now is       46.6 secs

     total energy              =   -1467.75215373 Ry
     estimated scf accuracy    <       0.00601289 Ry

     iteration #  9     ecut=    70.00 Ry     beta= 0.70
     Davidson diagonalization with overlap
     ethr =  1.40E-05,  avg # of iterations =  4.7

     total cpu time spent up to now is       52.1 secs

     total energy              =   -1467.75434134 Ry
     estimated scf accuracy    <       0.00112537 Ry

     iteration # 10     ecut=    70.00 Ry     beta= 0.70
     Davidson diagonalization with overlap
     ethr =  2.62E-06,  avg # of iterations =  4.5

     total cpu time spent up to now is       57.0 secs

     total energy              =   -1467.75443838 Ry
     estimated scf accuracy    <       0.00019818 Ry

     iteration # 11     ecut=    70.00 Ry     beta= 0.70
     Davidson diagonalization with overlap
     c_bands:  1 eigenvalues not converged
     ethr =  4.61E-07,  avg # of iterations =  6.5

     total cpu time spent up to now is       62.3 secs

     total energy              =   -1467.75455874 Ry
     estimated scf accuracy    <       0.00001490 Ry

     iteration # 12     ecut=    70.00 Ry     beta= 0.70
     Davidson diagonalization with overlap
     ethr =  3.46E-08,  avg # of iterations =  3.3

     total cpu time spent up to now is       67.1 secs

     total energy              =   -1467.75456004 Ry
     estimated scf accuracy    <       0.00001123 Ry

     iteration # 13     ecut=    70.00 Ry     beta= 0.70
     Davidson diagonalization with overlap
     ethr =  2.61E-08,  avg # of iterations =  1.4

     total cpu time spent up to now is       71.3 secs

     total energy              =   -1467.75455818 Ry
     estimated scf accuracy    <       0.00000765 Ry

     iteration # 14     ecut=    70.00 Ry     beta= 0.70
     Davidson diagonalization with overlap
     ethr =  1.78E-08,  avg # of iterations =  2.0

     total cpu time spent up to now is       75.8 secs

     total energy              =   -1467.75455783 Ry
     estimated scf accuracy    <       0.00000168 Ry

     iteration # 15     ecut=    70.00 Ry     beta= 0.70
     Davidson diagonalization with overlap
     ethr =  3.91E-09,  avg # of iterations =  5.0

     total cpu time spent up to now is       81.5 secs

     total energy              =   -1467.75455931 Ry
     estimated scf accuracy    <       0.00000215 Ry

     iteration # 16     ecut=    70.00 Ry     beta= 0.70
     Davidson diagonalization with overlap
     ethr =  3.91E-09,  avg # of iterations =  1.1

     total cpu time spent up to now is       85.9 secs

     total energy              =   -1467.75455876 Ry
     estimated scf accuracy    <       0.00000125 Ry

     iteration # 17     ecut=    70.00 Ry     beta= 0.70
     Davidson diagonalization with overlap
     ethr =  2.91E-09,  avg # of iterations =  2.0

     total cpu time spent up to now is       90.6 secs

     End of self-consistent calculation

          k = 0.0000 0.0000 0.0000 (  5449 PWs)   bands (ev):

   -16.0995 -12.1245 -12.1245 -11.5826 -11.5826 -11.5826  -8.2561  -5.4636
    -5.4636  -1.2453  -1.2453  -1.2453   4.7938   4.7938   4.7938   4.9242
     8.5148   8.5148   8.5148   8.8227   8.8227   8.8227  14.0500  14.0500
    15.5003  16.1395

          k = 0.0000 0.0000 0.2000 (  5366 PWs)   bands (ev):

   -16.0866 -12.1239 -12.0512 -11.5868 -11.5868 -11.5823  -8.1536  -5.8671
    -5.4583  -1.2066  -1.2066  -1.1757   3.2002   4.7878   4.7878   6.8114
     8.2988   8.4256   8.4256   8.7327   8.7327   9.0959  14.5626  14.5876
    16.2108  16.5213

          k = 0.0000 0.0000 0.4000 (  5394 PWs)   bands (ev):

   -16.0657 -12.1230 -11.9291 -11.5938 -11.5938 -11.5821  -7.8291  -6.6582
    -5.4498  -1.1422  -1.1422  -1.0969   2.4281   4.7660   4.7660   7.2603
     7.9957   8.3523   8.3523   8.5510   8.5510  10.8283  15.4264  15.4651
    16.4221  17.0815

          k = 0.0000 0.2000 0.2000 (  5373 PWs)   bands (ev):

   -16.0750 -12.0881 -12.0103 -11.5906 -11.5867 -11.5864  -8.0477  -6.0136
    -5.6733  -1.2343  -1.1738  -1.1223   2.1976   4.8207   5.8456   6.9642
     8.0038   8.3243   8.5435   8.6183   8.9343   9.4182  14.8868  15.1414
    16.3273  16.6117

          k = 0.0000 0.2000 0.4000 (  5386 PWs)   bands (ev):

   -16.0560 -12.0757 -11.8941 -11.5966 -11.5934 -11.5862  -7.7120  -6.6874
    -5.7430  -1.2075  -1.1361  -1.1196   1.4628   4.8669   6.2538   7.1639
     7.9122   8.2318   8.3907   8.5029   8.8742  11.1134  15.6119  15.9897
    16.6580  16.7665

          k = 0.0000 0.4000 0.4000 (  5368 PWs)   bands (ev):

   -16.0402 -12.0325 -11.7978 -11.6011 -11.5929 -11.5928  -7.3479  -6.8104
    -6.3350  -1.2695  -1.2341  -1.0822   0.6779   5.0442   6.9546   7.8284
     8.0303   8.0503   8.1229   8.6766   9.2272  12.2247  15.8541  16.3115
    16.3382  16.7530

          k = 0.2000 0.2000 0.2000 (  5368 PWs)   bands (ev):

   -16.0642 -12.0097 -12.0097 -11.5909 -11.5909 -11.5898  -7.9429  -5.9976
    -5.9976  -1.2446  -1.2446  -1.0657   1.3577   5.8725   5.8725   6.9901
     8.0152   8.0152   8.7970   8.8575   8.8575   9.7159  15.2739  15.2739
    16.2546  16.6856

          k = 0.2000 0.2000 0.4000 (  5363 PWs)   bands (ev):

   -16.0467 -12.0088 -11.8773 -11.5982 -11.5957 -11.5904  -7.6082  -6.6945
    -5.9714  -1.2621  -1.2473  -1.1104   0.6254   5.9091   6.6237   7.2020
     7.8369   8.0806   8.6807   8.7017   8.9263  11.3224  15.5882  15.8291
    16.4520  16.5910

          k = 0.2000 0.4000 0.4000 (  5409 PWs)   bands (ev):

   -16.0315 -11.9460 -11.7976 -11.6028 -11.5976 -11.5971  -7.2830  -6.7843
    -6.4460  -1.3390  -1.3306  -1.1923  -0.1827   6.3664   7.2177   7.8066
     7.8507   8.1469   8.6552   8.8609   9.2415  12.3272  15.2234  15.2590
    15.7987  16.6956

          k = 0.4000 0.4000 0.4000 (  5400 PWs)   bands (ev):

   -16.0174 -11.7972 -11.7972 -11.6054 -11.6054 -11.6039  -7.0818  -6.7411
    -6.7411  -1.4509  -1.4509  -1.3888  -1.1099   7.6283   7.8390   7.8390
     8.2191   8.2191   9.1850   9.1850   9.2973  12.8474  14.1999  14.1999
    14.9712  17.6999

     the Fermi energy is    11.2645 ev

!    total energy              =   -1467.75455892 Ry
     total all-electron energy =    -59784.846342 Ry
     estimated scf accuracy    <       0.00000006 Ry
     smearing contrib. (-TS)   =      -0.00116083 Ry
     internal energy E=F+TS    =   -1467.75339809 Ry

     The total energy is F=E-TS. E is the sum of the following terms:
     one-electron contribution =     -75.88010829 Ry
     hartree contribution      =      71.37843256 Ry
     xc contribution           =     -75.51393339 Ry
     ewald contribution        =    -227.40734636 Ry
     one-center paw contrib.   =   -1160.33044261 Ry

     convergence has been achieved in  17 iterations

     Forces acting on atoms (cartesian axes, Ry/au):

     atom    1 type  1   force =     0.00000000    0.00000000    0.00000000
     atom    2 type  2   force =     0.00000000    0.00000000    0.00000000
     atom    3 type  3   force =     0.00000000    0.00000000    0.00000000
     atom    4 type  3   force =     0.00000000    0.00000000    0.00000000
     atom    5 type  3   force =     0.00000000    0.00000000    0.00000000

     Total force =     0.000000     Total SCF correction =     0.000000


     Computing stress (Cartesian axis) and pressure

          total   stress  (Ry/bohr**3)                   (kbar)     P=       89.99
   0.00061172   0.00000000   0.00000000           89.99        0.00        0.00
   0.00000000   0.00061172   0.00000000            0.00       89.99        0.00
   0.00000000   0.00000000   0.00061172            0.00        0.00       89.99


     init_run     :      3.81s CPU      4.09s WALL (       1 calls)
     electrons    :     79.59s CPU     85.53s WALL (       1 calls)
     forces       :      1.23s CPU      1.38s WALL (       1 calls)
     stress       :      6.93s CPU      7.33s WALL (       1 calls)

     Called by init_run:
     wfcinit      :      0.94s CPU      0.95s WALL (       1 calls)
     potinit      :      0.82s CPU      0.84s WALL (       1 calls)
     hinit0       :      1.47s CPU      1.50s WALL (       1 calls)

     Called by electrons:
     c_bands      :     44.22s CPU     44.82s WALL (      17 calls)
     sum_band     :     16.33s CPU     19.08s WALL (      17 calls)
     v_of_rho     :      1.98s CPU      2.03s WALL (      18 calls)
     newd         :      8.11s CPU     10.75s WALL (      18 calls)
     PAW_pot      :      9.54s CPU      9.60s WALL (      18 calls)
     mix_rho      :      0.30s CPU      0.30s WALL (      17 calls)

     Called by c_bands:
     init_us_2    :      0.88s CPU      0.90s WALL (     370 calls)
     init_us_2:cp :      0.87s CPU      0.90s WALL (     370 calls)
     cegterg      :     42.20s CPU     42.76s WALL (     170 calls)

     Called by *egterg:
     cdiaghg      :      1.15s CPU      1.16s WALL (     912 calls)
     h_psi        :     34.23s CPU     34.70s WALL (     922 calls)
     s_psi        :      1.46s CPU      1.47s WALL (     922 calls)
     g_psi        :      0.17s CPU      0.18s WALL (     742 calls)

     Called by h_psi:
     h_psi:calbec :      1.71s CPU      1.74s WALL (     922 calls)
     vloc_psi     :     30.81s CPU     31.24s WALL (     922 calls)
     add_vuspsi   :      1.55s CPU      1.57s WALL (     922 calls)

     General routines
     calbec       :      2.43s CPU      2.47s WALL (    1142 calls)
     fft          :      1.43s CPU      1.47s WALL (     257 calls)
     ffts         :      0.16s CPU      0.16s WALL (      35 calls)
     fftw         :     32.97s CPU     33.44s WALL (   28442 calls)
     interpolate  :      0.22s CPU      0.22s WALL (      18 calls)

     Parallel routines

     PWSCF        :   1m32.50s CPU   1m39.32s WALL


   This run was terminated on:   2:32:56   6May2024            

=------------------------------------------------------------------------------=
   JOB DONE.
=------------------------------------------------------------------------------=
