
     Program PWSCF v.7.1 starts on  6May2024 at  7:52:15 

     This program is part of the open-source Quantum ESPRESSO suite
     for quantum simulation of materials; please cite
         "P. Giannozzi et al., J. Phys.:Condens. Matter 21 395502 (2009);
         "P. Giannozzi et al., J. Phys.:Condens. Matter 29 465901 (2017);
         "P. Giannozzi et al., J. Chem. Phys. 152 154105 (2020);
          URL http://www.quantum-espresso.org", 
     in publications or presentations arising from this work. More details at
     http://www.quantum-espresso.org/quote

     Parallel version (MPI), running on     2 processors

     MPI processes distributed on     1 nodes
     13680 MiB available memory on the printing compute node when the environment starts

     Waiting for input...
     Reading input from standard input
Warning: card &CELL ignored
Warning: card / ignored

     Current dimensions of program PWSCF are:
     Max number of different atomic species (ntypx) = 10
     Max number of k-points (npk) =  40000
     Max angular momentum in pseudopotentials (lmaxx) =  4
     file Ba.pbe-spn-kjpaw_psl.1.0.0.UPF: wavefunction(s)  5S 6S renormalized
     file Bi.pbe-dn-kjpaw_psl.1.0.0.UPF: wavefunction(s)  6P 5D renormalized
     file N.pbe-n-kjpaw_psl.1.0.0.UPF: wavefunction(s)  2S renormalized
     file O.pbe-n-kjpaw_psl.1.0.0.UPF: wavefunction(s)  2S 2P renormalized
     Message from routine setup:
     using ibrav=0 with symmetry is DISCOURAGED, use correct ibrav instead

     R & G space division:  proc/nbgrp/npool/nimage =       2
     Subspace diagonalization in iterative solution of the eigenvalue problem:
     a serial algorithm will be used


     Parallelization info
     --------------------
     sticks:   dense  smooth     PW     G-vecs:    dense   smooth      PW
     Min        1554     774    218                64737    22908    3465
     Max        1555     775    219                64738    22909    3466
     Sum        3109    1549    437               129475    45817    6931

     Using Slab Decomposition



     bravais-lattice index     =            0
     lattice parameter (alat)  =       8.3337  a.u.
     unit-cell volume          =     578.7785 (a.u.)^3
     number of atoms/cell      =            5
     number of atomic types    =            4
     number of electrons       =        42.00
     number of Kohn-Sham states=           21
     kinetic-energy cutoff     =      70.0000  Ry
     charge density cutoff     =     560.0000  Ry
     scf convergence threshold =      1.0E-07
     mixing beta               =       0.7000
     number of iterations used =            8  plain     mixing
     Exchange-correlation= SLA  PW   PBX  PBC
                           (   1   4   3   4   0   0   0)

     celldm(1)=   8.333692  celldm(2)=   0.000000  celldm(3)=   0.000000
     celldm(4)=   0.000000  celldm(5)=   0.000000  celldm(6)=   0.000000

     crystal axes: (cart. coord. in units of alat)
               a(1) = (   1.000000   0.000000   0.000000 )  
               a(2) = (   0.000000   1.000000   0.000000 )  
               a(3) = (   0.000000   0.000000   1.000000 )  

     reciprocal axes: (cart. coord. in units 2 pi/alat)
               b(1) = (  1.000000  0.000000  0.000000 )  
               b(2) = (  0.000000  1.000000  0.000000 )  
               b(3) = (  0.000000  0.000000  1.000000 )  


     PseudoPot. # 1 for Ba read from file:
     /home/bond/Software/qe-7.1/pseudo/Ba.pbe-spn-kjpaw_psl.1.0.0.UPF
     MD5 check sum: 7cfe25f1fe7574a4710541d5a11d6531
     Pseudo is Projector augmented-wave + core cor, Zval = 10.0
     Generated using &quot;atomic&quot; code by A. Dal Corso  v.6.2.2
     Shape of augmentation charge: PSQ
     Using radial grid of 1251 points,  7 beta functions with: 
                l(1) =   0
                l(2) =   0
                l(3) =   0
                l(4) =   1
                l(5) =   1
                l(6) =   2
                l(7) =   2
     Q(r) pseudized with 0 coefficients 


     PseudoPot. # 2 for Bi read from file:
     /home/bond/Software/qe-7.1/pseudo/Bi.pbe-dn-kjpaw_psl.1.0.0.UPF
     MD5 check sum: 266ded784ae3bc462508ed03f0f37963
     Pseudo is Projector augmented-wave + core cor, Zval = 15.0
     Generated using &quot;atomic&quot; code by A. Dal Corso  v.6.2.2
     Shape of augmentation charge: PSQ
     Using radial grid of 1283 points,  6 beta functions with: 
                l(1) =   0
                l(2) =   0
                l(3) =   1
                l(4) =   1
                l(5) =   2
                l(6) =   2
     Q(r) pseudized with 0 coefficients 


     PseudoPot. # 3 for N  read from file:
     /home/bond/Software/qe-7.1/pseudo/N.pbe-n-kjpaw_psl.1.0.0.UPF
     MD5 check sum: 14c48229446f9f2d411169a3abcbc3fa
     Pseudo is Projector augmented-wave + core cor, Zval =  5.0
     Generated using &quot;atomic&quot; code by A. Dal Corso  v.6.3
     Shape of augmentation charge: PSQ
     Using radial grid of 1085 points,  4 beta functions with: 
                l(1) =   0
                l(2) =   0
                l(3) =   1
                l(4) =   1
     Q(r) pseudized with 0 coefficients 


     PseudoPot. # 4 for O  read from file:
     /home/bond/Software/qe-7.1/pseudo/O.pbe-n-kjpaw_psl.1.0.0.UPF
     MD5 check sum: e99d9cef9b487d1ca56f5b95ecd0fd7a
     Pseudo is Projector augmented-wave + core cor, Zval =  6.0
     Generated using &quot;atomic&quot; code by A. Dal Corso  v.6.3
     Shape of augmentation charge: PSQ
     Using radial grid of 1095 points,  4 beta functions with: 
                l(1) =   0
                l(2) =   0
                l(3) =   1
                l(4) =   1
     Q(r) pseudized with 0 coefficients 


     atomic species   valence    mass     pseudopotential
        Ba            10.00   137.32700     Ba( 1.00)
        Bi            15.00   208.98040     Bi( 1.00)
        N              5.00    14.00700     N ( 1.00)
        O              6.00    15.99900     O ( 1.00)

     16 Sym. Ops., with inversion, found



   Cartesian axes

     site n.     atom                  positions (alat units)
         1           Ba  tau(   1) = (   0.5000000   0.5000000   0.5000000  )
         2           Bi  tau(   2) = (   0.0000000   0.0000000   0.0000000  )
         3           O   tau(   3) = (   0.0000000   0.0000000   0.5000000  )
         4           O   tau(   4) = (   0.5000000   0.0000000   0.0000000  )
         5           N   tau(   5) = (   0.0000000   0.5000000   0.0000000  )

     number of k points=    18
                       cart. coord. in units 2pi/alat
        k(    1) = (   0.0000000   0.0000000   0.0000000), wk =   0.0160000
        k(    2) = (   0.0000000   0.0000000   0.2000000), wk =   0.0640000
        k(    3) = (   0.0000000   0.0000000   0.4000000), wk =   0.0640000
        k(    4) = (   0.0000000   0.2000000   0.2000000), wk =   0.1280000
        k(    5) = (   0.0000000   0.2000000   0.4000000), wk =   0.1280000
        k(    6) = (   0.0000000   0.4000000   0.4000000), wk =   0.1280000
        k(    7) = (   0.2000000   0.2000000   0.2000000), wk =   0.1280000
        k(    8) = (   0.2000000   0.2000000   0.4000000), wk =   0.2560000
        k(    9) = (   0.2000000   0.4000000   0.4000000), wk =   0.2560000
        k(   10) = (   0.4000000   0.4000000   0.4000000), wk =   0.1280000
        k(   11) = (   0.0000000   0.2000000   0.0000000), wk =   0.0320000
        k(   12) = (   0.0000000   0.4000000   0.0000000), wk =   0.0320000
        k(   13) = (   0.2000000   0.0000000   0.2000000), wk =   0.0640000
        k(   14) = (   0.2000000   0.4000000   0.0000000), wk =   0.1280000
        k(   15) = (   0.4000000   0.0000000   0.2000000), wk =   0.1280000
        k(   16) = (   0.4000000   0.0000000   0.4000000), wk =   0.0640000
        k(   17) = (   0.2000000   0.4000000   0.2000000), wk =   0.1280000
        k(   18) = (   0.4000000   0.2000000   0.4000000), wk =   0.1280000

     Dense  grid:   129475 G-vectors     FFT dimensions: (  64,  64,  64)

     Smooth grid:    45817 G-vectors     FFT dimensions: (  45,  45,  45)

     Estimated max dynamical RAM per process >     289.06 MB

     Estimated total dynamical RAM >     578.12 MB

     Initial potential from superposition of free atoms

     starting charge      41.9822, renormalised to      42.0000
     Starting wfcs are   26 randomized atomic wfcs
     Checking if some PAW data can be deallocated... 

     total cpu time spent up to now is        6.1 secs

     Self-consistent Calculation

     iteration #  1     ecut=    70.00 Ry     beta= 0.70
     Davidson diagonalization with overlap
     ethr =  1.00E-02,  avg # of iterations =  2.0

     total cpu time spent up to now is       11.9 secs

     total energy              =   -1453.12538236 Ry
     estimated scf accuracy    <       1.63579629 Ry

     iteration #  2     ecut=    70.00 Ry     beta= 0.70
     Davidson diagonalization with overlap
     ethr =  3.89E-03,  avg # of iterations =  5.8

     total cpu time spent up to now is       19.9 secs

     total energy              =   -1453.70696632 Ry
     estimated scf accuracy    <       2.68273980 Ry

     iteration #  3     ecut=    70.00 Ry     beta= 0.70
     Davidson diagonalization with overlap
     ethr =  3.89E-03,  avg # of iterations =  2.9

     total cpu time spent up to now is       26.5 secs

     total energy              =   -1453.86275324 Ry
     estimated scf accuracy    <       0.45559680 Ry

     iteration #  4     ecut=    70.00 Ry     beta= 0.70
     Davidson diagonalization with overlap
     ethr =  1.08E-03,  avg # of iterations =  5.2

     total cpu time spent up to now is       34.1 secs

     total energy              =   -1454.13459426 Ry
     estimated scf accuracy    <       0.06460292 Ry

     iteration #  5     ecut=    70.00 Ry     beta= 0.70
     Davidson diagonalization with overlap
     ethr =  1.54E-04,  avg # of iterations =  5.3

     total cpu time spent up to now is       40.7 secs

     total energy              =   -1454.14200167 Ry
     estimated scf accuracy    <       0.10438147 Ry

     iteration #  6     ecut=    70.00 Ry     beta= 0.70
     Davidson diagonalization with overlap
     ethr =  1.54E-04,  avg # of iterations =  1.2

     total cpu time spent up to now is       46.0 secs

     total energy              =   -1454.10577839 Ry
     estimated scf accuracy    <       0.07342644 Ry

     iteration #  7     ecut=    70.00 Ry     beta= 0.70
     Davidson diagonalization with overlap
     ethr =  1.54E-04,  avg # of iterations =  5.6

     total cpu time spent up to now is       53.5 secs

     total energy              =   -1454.13107739 Ry
     estimated scf accuracy    <       0.00915158 Ry

     iteration #  8     ecut=    70.00 Ry     beta= 0.70
     Davidson diagonalization with overlap
     ethr =  2.18E-05,  avg # of iterations =  6.4

     total cpu time spent up to now is       60.4 secs

     total energy              =   -1454.14153425 Ry
     estimated scf accuracy    <       0.02437293 Ry

     iteration #  9     ecut=    70.00 Ry     beta= 0.70
     Davidson diagonalization with overlap
     ethr =  2.18E-05,  avg # of iterations =  5.3

     total cpu time spent up to now is       67.2 secs

     total energy              =   -1454.14577616 Ry
     estimated scf accuracy    <       0.07683574 Ry

     iteration # 10     ecut=    70.00 Ry     beta= 0.70
     Davidson diagonalization with overlap
     ethr =  2.18E-05,  avg # of iterations =  1.7

     total cpu time spent up to now is       72.7 secs

     total energy              =   -1454.14149708 Ry
     estimated scf accuracy    <       0.08200932 Ry

     iteration # 11     ecut=    70.00 Ry     beta= 0.70
     Davidson diagonalization with overlap
     ethr =  2.18E-05,  avg # of iterations =  1.2

     total cpu time spent up to now is       78.0 secs

     total energy              =   -1454.13938757 Ry
     estimated scf accuracy    <       0.07532005 Ry

     iteration # 12     ecut=    70.00 Ry     beta= 0.70
     Davidson diagonalization with overlap
     ethr =  2.18E-05,  avg # of iterations =  1.3

     total cpu time spent up to now is       83.5 secs

     total energy              =   -1454.11083583 Ry
     estimated scf accuracy    <       0.06852114 Ry

     iteration # 13     ecut=    70.00 Ry     beta= 0.70
     Davidson diagonalization with overlap
     c_bands:  2 eigenvalues not converged
     c_bands:  1 eigenvalues not converged
     ethr =  2.18E-05,  avg # of iterations = 12.3

     total cpu time spent up to now is       93.6 secs

     total energy              =   -1454.13849183 Ry
     estimated scf accuracy    <       0.02254816 Ry

     iteration # 14     ecut=    70.00 Ry     beta= 0.70
     Davidson diagonalization with overlap
     ethr =  2.18E-05,  avg # of iterations =  2.7

     total cpu time spent up to now is       99.5 secs

     total energy              =   -1454.14394485 Ry
     estimated scf accuracy    <       0.03418447 Ry

     iteration # 15     ecut=    70.00 Ry     beta= 0.70
     Davidson diagonalization with overlap
     ethr =  2.18E-05,  avg # of iterations =  3.8

     total cpu time spent up to now is      105.5 secs

     total energy              =   -1454.14342744 Ry
     estimated scf accuracy    <       0.05160973 Ry

     iteration # 16     ecut=    70.00 Ry     beta= 0.70
     Davidson diagonalization with overlap
     ethr =  2.18E-05,  avg # of iterations =  1.4

     total cpu time spent up to now is      111.0 secs

     total energy              =   -1454.13047941 Ry
     estimated scf accuracy    <       0.05124389 Ry

     iteration # 17     ecut=    70.00 Ry     beta= 0.70
     Davidson diagonalization with overlap
     ethr =  2.18E-05,  avg # of iterations =  4.9

     total cpu time spent up to now is      117.9 secs

     total energy              =   -1454.12854065 Ry
     estimated scf accuracy    <       0.01643317 Ry

     iteration # 18     ecut=    70.00 Ry     beta= 0.70
     Davidson diagonalization with overlap
     ethr =  2.18E-05,  avg # of iterations =  5.6

     total cpu time spent up to now is      125.1 secs

     total energy              =   -1454.13086291 Ry
     estimated scf accuracy    <       0.00295937 Ry

     iteration # 19     ecut=    70.00 Ry     beta= 0.70
     Davidson diagonalization with overlap
     ethr =  7.05E-06,  avg # of iterations =  8.4

     total cpu time spent up to now is      133.1 secs

     total energy              =   -1454.12902537 Ry
     estimated scf accuracy    <       0.01099765 Ry

     iteration # 20     ecut=    70.00 Ry     beta= 0.70
     Davidson diagonalization with overlap
     ethr =  7.05E-06,  avg # of iterations =  7.7

     total cpu time spent up to now is      141.3 secs

     total energy              =   -1454.13162962 Ry
     estimated scf accuracy    <       0.00116879 Ry

     iteration # 21     ecut=    70.00 Ry     beta= 0.70
     Davidson diagonalization with overlap
     ethr =  2.78E-06,  avg # of iterations =  2.6

     total cpu time spent up to now is      146.9 secs

     total energy              =   -1454.13164452 Ry
     estimated scf accuracy    <       0.00111705 Ry

     iteration # 22     ecut=    70.00 Ry     beta= 0.70
     Davidson diagonalization with overlap
     ethr =  2.66E-06,  avg # of iterations =  1.2

     total cpu time spent up to now is      152.1 secs

     total energy              =   -1454.13168965 Ry
     estimated scf accuracy    <       0.00100411 Ry

     iteration # 23     ecut=    70.00 Ry     beta= 0.70
     Davidson diagonalization with overlap
     ethr =  2.39E-06,  avg # of iterations =  4.8

     total cpu time spent up to now is      159.3 secs

     total energy              =   -1454.13190797 Ry
     estimated scf accuracy    <       0.00239510 Ry

     iteration # 24     ecut=    70.00 Ry     beta= 0.70
     Davidson diagonalization with overlap
     ethr =  2.39E-06,  avg # of iterations =  3.2

     total cpu time spent up to now is      165.3 secs

     total energy              =   -1454.13234212 Ry
     estimated scf accuracy    <       0.00231330 Ry

     iteration # 25     ecut=    70.00 Ry     beta= 0.70
     Davidson diagonalization with overlap
     ethr =  2.39E-06,  avg # of iterations =  3.1

     total cpu time spent up to now is      171.1 secs

     total energy              =   -1454.13189807 Ry
     estimated scf accuracy    <       0.00269798 Ry

     iteration # 26     ecut=    70.00 Ry     beta= 0.70
     Davidson diagonalization with overlap
     ethr =  2.39E-06,  avg # of iterations =  3.3

     total cpu time spent up to now is      177.1 secs

     total energy              =   -1454.13205422 Ry
     estimated scf accuracy    <       0.00169951 Ry

     iteration # 27     ecut=    70.00 Ry     beta= 0.70
     Davidson diagonalization with overlap
     ethr =  2.39E-06,  avg # of iterations =  7.8

     total cpu time spent up to now is      185.5 secs

     total energy              =   -1454.13151762 Ry
     estimated scf accuracy    <       0.00709177 Ry

     iteration # 28     ecut=    70.00 Ry     beta= 0.70
     Davidson diagonalization with overlap
     ethr =  2.39E-06,  avg # of iterations =  5.8

     total cpu time spent up to now is      192.3 secs

     total energy              =   -1454.13069212 Ry
     estimated scf accuracy    <       0.00179802 Ry

     iteration # 29     ecut=    70.00 Ry     beta= 0.70
     Davidson diagonalization with overlap
     c_bands:  1 eigenvalues not converged
     c_bands:  1 eigenvalues not converged
     ethr =  2.39E-06,  avg # of iterations = 13.4

     total cpu time spent up to now is      202.3 secs

     total energy              =   -1454.12484219 Ry
     estimated scf accuracy    <       0.03180022 Ry

     iteration # 30     ecut=    70.00 Ry     beta= 0.70
     Davidson diagonalization with overlap
     c_bands:  1 eigenvalues not converged
     ethr =  2.39E-06,  avg # of iterations = 14.1

     total cpu time spent up to now is      213.0 secs

     total energy              =   -1454.13201605 Ry
     estimated scf accuracy    <       0.00399663 Ry

     iteration # 31     ecut=    70.00 Ry     beta= 0.70
     Davidson diagonalization with overlap
     ethr =  2.39E-06,  avg # of iterations =  2.1

     total cpu time spent up to now is      218.5 secs

     total energy              =   -1454.13171558 Ry
     estimated scf accuracy    <       0.00279556 Ry

     iteration # 32     ecut=    70.00 Ry     beta= 0.70
     Davidson diagonalization with overlap
     ethr =  2.39E-06,  avg # of iterations =  2.8

     total cpu time spent up to now is      224.2 secs

     total energy              =   -1454.13175504 Ry
     estimated scf accuracy    <       0.00138159 Ry

     iteration # 33     ecut=    70.00 Ry     beta= 0.70
     Davidson diagonalization with overlap
     ethr =  2.39E-06,  avg # of iterations =  1.6

     total cpu time spent up to now is      229.6 secs

     total energy              =   -1454.13137523 Ry
     estimated scf accuracy    <       0.00108719 Ry

     iteration # 34     ecut=    70.00 Ry     beta= 0.70
     Davidson diagonalization with overlap
     ethr =  2.39E-06,  avg # of iterations =  7.6

     total cpu time spent up to now is      237.0 secs

     total energy              =   -1454.13176714 Ry
     estimated scf accuracy    <       0.00027434 Ry

     iteration # 35     ecut=    70.00 Ry     beta= 0.70
     Davidson diagonalization with overlap
     ethr =  6.53E-07,  avg # of iterations =  2.3

     total cpu time spent up to now is      242.9 secs

     total energy              =   -1454.13172022 Ry
     estimated scf accuracy    <       0.00024002 Ry

     iteration # 36     ecut=    70.00 Ry     beta= 0.70
     Davidson diagonalization with overlap
     ethr =  5.71E-07,  avg # of iterations =  2.4

     total cpu time spent up to now is      248.8 secs

     total energy              =   -1454.13171440 Ry
     estimated scf accuracy    <       0.00011425 Ry

     iteration # 37     ecut=    70.00 Ry     beta= 0.70
     Davidson diagonalization with overlap
     ethr =  2.72E-07,  avg # of iterations =  6.7

     total cpu time spent up to now is      255.6 secs

     total energy              =   -1454.13175156 Ry
     estimated scf accuracy    <       0.00001747 Ry

     iteration # 38     ecut=    70.00 Ry     beta= 0.70
     Davidson diagonalization with overlap
     ethr =  4.16E-08,  avg # of iterations =  5.6

     total cpu time spent up to now is      262.1 secs

     total energy              =   -1454.13175636 Ry
     estimated scf accuracy    <       0.00002074 Ry

     iteration # 39     ecut=    70.00 Ry     beta= 0.70
     Davidson diagonalization with overlap
     ethr =  4.16E-08,  avg # of iterations =  1.8

     total cpu time spent up to now is      267.9 secs

     total energy              =   -1454.13175821 Ry
     estimated scf accuracy    <       0.00001986 Ry

     iteration # 40     ecut=    70.00 Ry     beta= 0.70
     Davidson diagonalization with overlap
     ethr =  4.16E-08,  avg # of iterations =  1.8

     total cpu time spent up to now is      273.4 secs

     total energy              =   -1454.13175563 Ry
     estimated scf accuracy    <       0.00002428 Ry

     iteration # 41     ecut=    70.00 Ry     beta= 0.70
     Davidson diagonalization with overlap
     ethr =  4.16E-08,  avg # of iterations =  1.8

     total cpu time spent up to now is      278.9 secs

     total energy              =   -1454.13175475 Ry
     estimated scf accuracy    <       0.00001780 Ry

     iteration # 42     ecut=    70.00 Ry     beta= 0.70
     Davidson diagonalization with overlap
     ethr =  4.16E-08,  avg # of iterations =  6.6

     total cpu time spent up to now is      286.5 secs

     total energy              =   -1454.13176067 Ry
     estimated scf accuracy    <       0.00005083 Ry

     iteration # 43     ecut=    70.00 Ry     beta= 0.70
     Davidson diagonalization with overlap
     ethr =  4.16E-08,  avg # of iterations =  1.2

     total cpu time spent up to now is      292.0 secs

     total energy              =   -1454.13175587 Ry
     estimated scf accuracy    <       0.00004286 Ry

     iteration # 44     ecut=    70.00 Ry     beta= 0.70
     Davidson diagonalization with overlap
     ethr =  4.16E-08,  avg # of iterations =  3.1

     total cpu time spent up to now is      298.0 secs

     total energy              =   -1454.13175774 Ry
     estimated scf accuracy    <       0.00002783 Ry

     iteration # 45     ecut=    70.00 Ry     beta= 0.70
     Davidson diagonalization with overlap
     ethr =  4.16E-08,  avg # of iterations =  1.1

     total cpu time spent up to now is      303.5 secs

     total energy              =   -1454.13175835 Ry
     estimated scf accuracy    <       0.00002554 Ry

     iteration # 46     ecut=    70.00 Ry     beta= 0.70
     Davidson diagonalization with overlap
     ethr =  4.16E-08,  avg # of iterations =  1.0

     total cpu time spent up to now is      309.1 secs

     total energy              =   -1454.13175552 Ry
     estimated scf accuracy    <       0.00002567 Ry

     iteration # 47     ecut=    70.00 Ry     beta= 0.70
     Davidson diagonalization with overlap
     ethr =  4.16E-08,  avg # of iterations =  4.8

     total cpu time spent up to now is      315.8 secs

     total energy              =   -1454.13175592 Ry
     estimated scf accuracy    <       0.00004147 Ry

     iteration # 48     ecut=    70.00 Ry     beta= 0.70
     Davidson diagonalization with overlap
     ethr =  4.16E-08,  avg # of iterations =  1.3

     total cpu time spent up to now is      321.1 secs

     total energy              =   -1454.13175037 Ry
     estimated scf accuracy    <       0.00003362 Ry

     iteration # 49     ecut=    70.00 Ry     beta= 0.70
     Davidson diagonalization with overlap
     ethr =  4.16E-08,  avg # of iterations =  2.8

     total cpu time spent up to now is      327.3 secs

     total energy              =   -1454.13175037 Ry
     estimated scf accuracy    <       0.00001221 Ry

     iteration # 50     ecut=    70.00 Ry     beta= 0.70
     Davidson diagonalization with overlap
     ethr =  2.91E-08,  avg # of iterations =  2.1

     total cpu time spent up to now is      332.9 secs

     total energy              =   -1454.13174987 Ry
     estimated scf accuracy    <       0.00000645 Ry

     iteration # 51     ecut=    70.00 Ry     beta= 0.70
     Davidson diagonalization with overlap
     ethr =  1.54E-08,  avg # of iterations =  6.3

     total cpu time spent up to now is      339.5 secs

     End of self-consistent calculation

          k = 0.0000 0.0000 0.0000 (  5743 PWs)   bands (ev):

   -16.8173 -13.3281 -13.2031 -12.9350 -12.8964 -12.8964  -8.4703  -6.5270
    -2.9302  -1.9935  -1.9475  -1.9475   4.0239   4.0239   4.2223   4.6354
     7.7241   7.7965   7.7965   8.3402   9.2091

          k = 0.0000 0.0000 0.2000 (  5698 PWs)   bands (ev):

   -16.8085 -13.2931 -13.1806 -12.9379 -12.8993 -12.8962  -8.3680  -6.7796
    -3.2380  -1.9637  -1.9171  -1.7566   2.7723   4.0322   4.6475   6.0309
     7.6498   7.7381   7.7969   8.2197   8.9533

          k = 0.0000 0.0000 0.4000 (  5734 PWs)   bands (ev):

   -16.7941 -13.2634 -13.1143 -12.9427 -12.9042 -12.8961  -8.0235  -7.3907
    -3.5471  -1.9145  -1.8669  -1.6337   2.2739   4.0396   4.6543   6.6711
     7.6372   7.6509   7.9484   8.0396   8.7551

          k = 0.0000 0.2000 0.2000 (  5734 PWs)   bands (ev):

   -16.7999 -13.2920 -13.1595 -12.9378 -12.9020 -12.8992  -8.3491  -6.7709
    -3.3156  -1.9393  -1.8910  -1.7429   1.5332   4.0532   5.3101   6.4824
     7.4221   7.6201   7.8176   8.9618   8.9669

          k = 0.0000 0.2000 0.4000 (  5721 PWs)   bands (ev):

   -16.7868 -13.2580 -13.0960 -12.9425 -12.9062 -12.8990  -7.9898  -7.3777
    -3.5842  -1.9533  -1.8483  -1.6326   0.9858   4.1127   6.1018   6.6935
     7.2667   7.5064   7.9689   8.6734   8.7380

          k = 0.0000 0.4000 0.4000 (  5726 PWs)   bands (ev):

   -16.7750 -13.2513 -13.0641 -12.9421 -12.9095 -12.9036  -7.9424  -7.3387
    -3.6655  -2.0184  -1.8178  -1.5509  -0.2578   4.2365   6.5771   7.1131
     7.2902   7.3364   8.1190   8.5304   9.3136

          k = 0.2000 0.2000 0.2000 (  5734 PWs)   bands (ev):

   -16.7923 -13.2435 -13.1487 -12.9405 -12.9022 -12.9017  -8.2532  -6.9519
    -3.4953  -1.9558  -1.9515  -1.6896   0.9034   5.0165   5.5201   6.4674
     7.3938   7.5270   7.9451   8.8222   9.1216

          k = 0.2000 0.2000 0.4000 (  5701 PWs)   bands (ev):

   -16.7799 -13.1968 -13.0958 -12.9449 -12.9064 -12.9019  -7.9407  -7.4278
    -3.7403  -1.9915  -1.9194  -1.7888   0.4390   5.3218   6.2615   6.5768
     7.2952   7.6115   7.9740   8.6988   8.9449

          k = 0.2000 0.4000 0.4000 (  5750 PWs)   bands (ev):

   -16.7684 -13.1900 -13.0634 -12.9453 -12.9104 -12.9067  -7.8931  -7.3931
    -3.6015  -2.0757  -1.9539  -1.7322  -0.9385   5.4711   6.7574   7.0480
     7.3109   7.6483   8.1004   8.8983   9.3853

          k = 0.4000 0.4000 0.4000 (  5743 PWs)   bands (ev):

   -16.7578 -13.0927 -13.0559 -12.9503 -12.9121 -12.9115  -7.7502  -7.5514
    -3.5236  -2.1559  -2.1232  -2.0758  -1.6443   6.8907   7.1396   7.2453
     7.3308   8.1429   8.3106   9.3560   9.5047

          k = 0.0000 0.2000 0.0000 (  5698 PWs)   bands (ev):

   -16.8079 -13.3277 -13.1819 -12.9348 -12.8993 -12.8993  -8.4584  -6.5229
    -3.0598  -1.9295  -1.9168  -1.9168   2.3912   4.0154   4.0154   6.4697
     7.5418   7.6921   7.6921   8.8855   9.1693

          k = 0.0000 0.4000 0.0000 (  5734 PWs)   bands (ev):

   -16.7927 -13.3272 -13.1475 -12.9347 -12.9042 -12.9042  -8.4360  -6.5162
    -3.2337  -1.8916  -1.8662  -1.8662   1.3245   3.9940   3.9940   6.8165
     7.2816   7.5493   7.5493   9.1050   9.1050

          k = 0.2000 0.0000 0.2000 (  5734 PWs)   bands (ev):

   -16.8002 -13.2438 -13.1713 -12.9406 -12.8993 -12.8991  -8.2766  -6.9634
    -3.4838  -1.9500  -1.9383  -1.7130   2.0505   4.7032   5.0058   6.2996
     7.5497   7.5626   7.9640   8.0801   8.9973

          k = 0.2000 0.4000 0.0000 (  5721 PWs)   bands (ev):

   -16.7859 -13.2905 -13.1247 -12.9375 -12.9062 -12.9040  -8.3161  -6.7550
    -3.4247  -1.9414  -1.8479  -1.7138   0.4643   4.0822   5.4384   6.7575
     7.2702   7.4553   7.7044   8.8677   9.1756

          k = 0.4000 0.0000 0.2000 (  5721 PWs)   bands (ev):

   -16.7869 -13.2033 -13.1134 -12.9447 -12.9040 -12.8990  -7.9718  -7.4440
    -3.8047  -1.9240  -1.8963  -1.7790   1.6372   4.7890   5.4290   6.4770
     7.4910   7.7727   7.8508   8.1628   8.7964

          k = 0.4000 0.0000 0.4000 (  5726 PWs)   bands (ev):

   -16.7752 -13.1211 -13.0931 -12.9480 -12.9036 -12.9036  -7.8157  -7.6020
    -4.2581  -1.9871  -1.9435  -1.8664   1.1886   5.0449   6.2316   7.0547
     7.2965   7.4222   8.2802   8.3189   8.7586

          k = 0.2000 0.4000 0.2000 (  5701 PWs)   bands (ev):

   -16.7793 -13.2430 -13.1118 -12.9404 -12.9072 -12.9056  -8.2126  -6.9332
    -3.4887  -1.9916  -1.9658  -1.6333  -0.2618   5.0295   5.8709   6.7887
     7.2682   7.4181   7.8156   8.8621   9.3079

          k = 0.4000 0.2000 0.4000 (  5750 PWs)   bands (ev):

   -16.7685 -13.0964 -13.0930 -12.9489 -12.9069 -12.9067  -7.7911  -7.5828
    -4.0626  -2.0392  -2.0294  -1.9462  -0.0529   6.4275   6.4783   7.0863
     7.3040   7.4150   8.3204   8.7207   9.0104

     highest occupied level (ev):     9.5047

!    total energy              =   -1454.13175194 Ry
     total all-electron energy =    -59743.675443 Ry
     estimated scf accuracy    <       0.00000008 Ry

     The total energy is the sum of the following terms:
     one-electron contribution =     -74.01770253 Ry
     hartree contribution      =      67.65231595 Ry
     xc contribution           =     -73.45811628 Ry
     ewald contribution        =    -215.60038605 Ry
     one-center paw contrib.   =   -1158.70786302 Ry

     convergence has been achieved in  51 iterations

     Forces acting on atoms (cartesian axes, Ry/au):

     atom    1 type  1   force =     0.00000000    0.00000000    0.00000000
     atom    2 type  2   force =     0.00000000    0.00000000    0.00000000
     atom    3 type  4   force =     0.00000000    0.00000000    0.00000000
     atom    4 type  4   force =     0.00000000    0.00000000    0.00000000
     atom    5 type  3   force =     0.00000000    0.00000000    0.00000000

     Total force =     0.000000     Total SCF correction =     0.000000


     Computing stress (Cartesian axis) and pressure

          total   stress  (Ry/bohr**3)                   (kbar)     P=      -11.06
  -0.00005510   0.00000000   0.00000000           -8.11        0.00        0.00
   0.00000000  -0.00011537   0.00000000            0.00      -16.97        0.00
   0.00000000   0.00000000  -0.00005510            0.00        0.00       -8.11


     init_run     :      4.66s CPU      5.00s WALL (       1 calls)
     electrons    :    306.37s CPU    333.36s WALL (       1 calls)
     forces       :      1.39s CPU      1.55s WALL (       1 calls)
     stress       :      8.19s CPU      8.94s WALL (       1 calls)

     Called by init_run:
     wfcinit      :      1.60s CPU      1.68s WALL (       1 calls)
     potinit      :      0.86s CPU      0.89s WALL (       1 calls)
     hinit0       :      1.58s CPU      1.64s WALL (       1 calls)

     Called by electrons:
     c_bands      :    187.16s CPU    190.41s WALL (      51 calls)
     sum_band     :     59.91s CPU     72.23s WALL (      51 calls)
     v_of_rho     :      5.80s CPU      5.92s WALL (      52 calls)
     newd         :     25.77s CPU     36.91s WALL (      52 calls)
     PAW_pot      :     27.16s CPU     27.40s WALL (      52 calls)
     mix_rho      :      1.16s CPU      1.17s WALL (      51 calls)

     Called by c_bands:
     init_us_2    :      5.18s CPU      5.29s WALL (    1890 calls)
     init_us_2:cp :      5.16s CPU      5.27s WALL (    1890 calls)
     cegterg      :    175.90s CPU    178.94s WALL (     918 calls)

     Called by *egterg:
     cdiaghg      :      4.06s CPU      4.13s WALL (    4816 calls)
     h_psi        :    141.97s CPU    144.50s WALL (    4834 calls)
     s_psi        :      7.23s CPU      7.37s WALL (    4834 calls)
     g_psi        :      0.80s CPU      0.82s WALL (    3898 calls)

     Called by h_psi:
     h_psi:calbec :      8.31s CPU      8.45s WALL (    4834 calls)
     vloc_psi     :    124.98s CPU    127.22s WALL (    4834 calls)
     add_vuspsi   :      7.94s CPU      8.08s WALL (    4834 calls)

     General routines
     calbec       :     10.95s CPU     11.15s WALL (    5842 calls)
     fft          :      3.32s CPU      3.40s WALL (     699 calls)
     ffts         :      0.28s CPU      0.28s WALL (     103 calls)
     fftw         :    133.51s CPU    135.86s WALL (  122134 calls)
     interpolate  :      0.45s CPU      0.46s WALL (      52 calls)

     Parallel routines

     PWSCF        :   5m21.68s CPU   5m49.99s WALL


   This run was terminated on:   7:58: 5   6May2024            

=------------------------------------------------------------------------------=
   JOB DONE.
=------------------------------------------------------------------------------=
