
     Program PWSCF v.7.1 starts on  6May2024 at  7:18:54 

     This program is part of the open-source Quantum ESPRESSO suite
     for quantum simulation of materials; please cite
         "P. Giannozzi et al., J. Phys.:Condens. Matter 21 395502 (2009);
         "P. Giannozzi et al., J. Phys.:Condens. Matter 29 465901 (2017);
         "P. Giannozzi et al., J. Chem. Phys. 152 154105 (2020);
          URL http://www.quantum-espresso.org", 
     in publications or presentations arising from this work. More details at
     http://www.quantum-espresso.org/quote

     Parallel version (MPI), running on     2 processors

     MPI processes distributed on     1 nodes
     13494 MiB available memory on the printing compute node when the environment starts

     Waiting for input...
     Reading input from standard input
Warning: card &CELL ignored
Warning: card / ignored

     Current dimensions of program PWSCF are:
     Max number of different atomic species (ntypx) = 10
     Max number of k-points (npk) =  40000
     Max angular momentum in pseudopotentials (lmaxx) =  4
     file Ba.pbe-spn-kjpaw_psl.1.0.0.UPF: wavefunction(s)  5S 6S renormalized
     file Bi.pbe-dn-kjpaw_psl.1.0.0.UPF: wavefunction(s)  6P 5D renormalized
     file N.pbe-n-kjpaw_psl.1.0.0.UPF: wavefunction(s)  2S renormalized
     file O.pbe-n-kjpaw_psl.1.0.0.UPF: wavefunction(s)  2S 2P renormalized
     Message from routine setup:
     using ibrav=0 with symmetry is DISCOURAGED, use correct ibrav instead

     R & G space division:  proc/nbgrp/npool/nimage =       2
     Subspace diagonalization in iterative solution of the eigenvalue problem:
     a serial algorithm will be used


     Parallelization info
     --------------------
     sticks:   dense  smooth     PW     G-vecs:    dense   smooth      PW
     Min        1498     744    210                62142    21909    3308
     Max        1499     745    211                62147    21910    3311
     Sum        2997    1489    421               124289    43819    6619

     Using Slab Decomposition



     bravais-lattice index     =            0
     lattice parameter (alat)  =       8.2203  a.u.
     unit-cell volume          =     555.4748 (a.u.)^3
     number of atoms/cell      =            5
     number of atomic types    =            4
     number of electrons       =        42.00
     number of Kohn-Sham states=           21
     kinetic-energy cutoff     =      70.0000  Ry
     charge density cutoff     =     560.0000  Ry
     scf convergence threshold =      1.0E-07
     mixing beta               =       0.7000
     number of iterations used =            8  plain     mixing
     Exchange-correlation= SLA  PW   PBX  PBC
                           (   1   4   3   4   0   0   0)

     celldm(1)=   8.220309  celldm(2)=   0.000000  celldm(3)=   0.000000
     celldm(4)=   0.000000  celldm(5)=   0.000000  celldm(6)=   0.000000

     crystal axes: (cart. coord. in units of alat)
               a(1) = (   1.000000   0.000000   0.000000 )  
               a(2) = (   0.000000   1.000000   0.000000 )  
               a(3) = (   0.000000   0.000000   1.000000 )  

     reciprocal axes: (cart. coord. in units 2 pi/alat)
               b(1) = (  1.000000  0.000000  0.000000 )  
               b(2) = (  0.000000  1.000000  0.000000 )  
               b(3) = (  0.000000  0.000000  1.000000 )  


     PseudoPot. # 1 for Ba read from file:
     /home/bond/Software/qe-7.1/pseudo/Ba.pbe-spn-kjpaw_psl.1.0.0.UPF
     MD5 check sum: 7cfe25f1fe7574a4710541d5a11d6531
     Pseudo is Projector augmented-wave + core cor, Zval = 10.0
     Generated using &quot;atomic&quot; code by A. Dal Corso  v.6.2.2
     Shape of augmentation charge: PSQ
     Using radial grid of 1251 points,  7 beta functions with: 
                l(1) =   0
                l(2) =   0
                l(3) =   0
                l(4) =   1
                l(5) =   1
                l(6) =   2
                l(7) =   2
     Q(r) pseudized with 0 coefficients 


     PseudoPot. # 2 for Bi read from file:
     /home/bond/Software/qe-7.1/pseudo/Bi.pbe-dn-kjpaw_psl.1.0.0.UPF
     MD5 check sum: 266ded784ae3bc462508ed03f0f37963
     Pseudo is Projector augmented-wave + core cor, Zval = 15.0
     Generated using &quot;atomic&quot; code by A. Dal Corso  v.6.2.2
     Shape of augmentation charge: PSQ
     Using radial grid of 1283 points,  6 beta functions with: 
                l(1) =   0
                l(2) =   0
                l(3) =   1
                l(4) =   1
                l(5) =   2
                l(6) =   2
     Q(r) pseudized with 0 coefficients 


     PseudoPot. # 3 for N  read from file:
     /home/bond/Software/qe-7.1/pseudo/N.pbe-n-kjpaw_psl.1.0.0.UPF
     MD5 check sum: 14c48229446f9f2d411169a3abcbc3fa
     Pseudo is Projector augmented-wave + core cor, Zval =  5.0
     Generated using &quot;atomic&quot; code by A. Dal Corso  v.6.3
     Shape of augmentation charge: PSQ
     Using radial grid of 1085 points,  4 beta functions with: 
                l(1) =   0
                l(2) =   0
                l(3) =   1
                l(4) =   1
     Q(r) pseudized with 0 coefficients 


     PseudoPot. # 4 for O  read from file:
     /home/bond/Software/qe-7.1/pseudo/O.pbe-n-kjpaw_psl.1.0.0.UPF
     MD5 check sum: e99d9cef9b487d1ca56f5b95ecd0fd7a
     Pseudo is Projector augmented-wave + core cor, Zval =  6.0
     Generated using &quot;atomic&quot; code by A. Dal Corso  v.6.3
     Shape of augmentation charge: PSQ
     Using radial grid of 1095 points,  4 beta functions with: 
                l(1) =   0
                l(2) =   0
                l(3) =   1
                l(4) =   1
     Q(r) pseudized with 0 coefficients 


     atomic species   valence    mass     pseudopotential
        Ba            10.00   137.32700     Ba( 1.00)
        Bi            15.00   208.98040     Bi( 1.00)
        N              5.00    14.00700     N ( 1.00)
        O              6.00    15.99900     O ( 1.00)

     16 Sym. Ops., with inversion, found



   Cartesian axes

     site n.     atom                  positions (alat units)
         1           Ba  tau(   1) = (   0.5000000   0.5000000   0.5000000  )
         2           Bi  tau(   2) = (   0.0000000   0.0000000   0.0000000  )
         3           O   tau(   3) = (   0.0000000   0.0000000   0.5000000  )
         4           O   tau(   4) = (   0.5000000   0.0000000   0.0000000  )
         5           N   tau(   5) = (   0.0000000   0.5000000   0.0000000  )

     number of k points=    18
                       cart. coord. in units 2pi/alat
        k(    1) = (   0.0000000   0.0000000   0.0000000), wk =   0.0160000
        k(    2) = (   0.0000000   0.0000000   0.2000000), wk =   0.0640000
        k(    3) = (   0.0000000   0.0000000   0.4000000), wk =   0.0640000
        k(    4) = (   0.0000000   0.2000000   0.2000000), wk =   0.1280000
        k(    5) = (   0.0000000   0.2000000   0.4000000), wk =   0.1280000
        k(    6) = (   0.0000000   0.4000000   0.4000000), wk =   0.1280000
        k(    7) = (   0.2000000   0.2000000   0.2000000), wk =   0.1280000
        k(    8) = (   0.2000000   0.2000000   0.4000000), wk =   0.2560000
        k(    9) = (   0.2000000   0.4000000   0.4000000), wk =   0.2560000
        k(   10) = (   0.4000000   0.4000000   0.4000000), wk =   0.1280000
        k(   11) = (   0.0000000   0.2000000   0.0000000), wk =   0.0320000
        k(   12) = (   0.0000000   0.4000000   0.0000000), wk =   0.0320000
        k(   13) = (   0.2000000   0.0000000   0.2000000), wk =   0.0640000
        k(   14) = (   0.2000000   0.4000000   0.0000000), wk =   0.1280000
        k(   15) = (   0.4000000   0.0000000   0.2000000), wk =   0.1280000
        k(   16) = (   0.4000000   0.0000000   0.4000000), wk =   0.0640000
        k(   17) = (   0.2000000   0.4000000   0.2000000), wk =   0.1280000
        k(   18) = (   0.4000000   0.2000000   0.4000000), wk =   0.1280000

     Dense  grid:   124289 G-vectors     FFT dimensions: (  64,  64,  64)

     Smooth grid:    43819 G-vectors     FFT dimensions: (  45,  45,  45)

     Estimated max dynamical RAM per process >     278.25 MB

     Estimated total dynamical RAM >     556.51 MB

     Initial potential from superposition of free atoms

     starting charge      41.9822, renormalised to      42.0000
     Starting wfcs are   26 randomized atomic wfcs
     Checking if some PAW data can be deallocated... 

     total cpu time spent up to now is        6.2 secs

     Self-consistent Calculation

     iteration #  1     ecut=    70.00 Ry     beta= 0.70
     Davidson diagonalization with overlap
     ethr =  1.00E-02,  avg # of iterations =  1.9

     total cpu time spent up to now is       11.9 secs

     total energy              =   -1453.13428401 Ry
     estimated scf accuracy    <       1.63224141 Ry

     iteration #  2     ecut=    70.00 Ry     beta= 0.70
     Davidson diagonalization with overlap
     ethr =  3.89E-03,  avg # of iterations =  5.4

     total cpu time spent up to now is       19.4 secs

     total energy              =   -1453.73214319 Ry
     estimated scf accuracy    <       2.54806379 Ry

     iteration #  3     ecut=    70.00 Ry     beta= 0.70
     Davidson diagonalization with overlap
     ethr =  3.89E-03,  avg # of iterations =  2.7

     total cpu time spent up to now is       25.6 secs

     total energy              =   -1453.91176150 Ry
     estimated scf accuracy    <       0.35813128 Ry

     iteration #  4     ecut=    70.00 Ry     beta= 0.70
     Davidson diagonalization with overlap
     ethr =  8.53E-04,  avg # of iterations =  5.4

     total cpu time spent up to now is       32.9 secs

     total energy              =   -1454.12835175 Ry
     estimated scf accuracy    <       0.04679645 Ry

     iteration #  5     ecut=    70.00 Ry     beta= 0.70
     Davidson diagonalization with overlap
     ethr =  1.11E-04,  avg # of iterations =  4.9

     total cpu time spent up to now is       40.1 secs

     total energy              =   -1454.13062232 Ry
     estimated scf accuracy    <       0.07606638 Ry

     iteration #  6     ecut=    70.00 Ry     beta= 0.70
     Davidson diagonalization with overlap
     ethr =  1.11E-04,  avg # of iterations =  1.6

     total cpu time spent up to now is       45.6 secs

     total energy              =   -1454.11410084 Ry
     estimated scf accuracy    <       0.03884425 Ry

     iteration #  7     ecut=    70.00 Ry     beta= 0.70
     Davidson diagonalization with overlap
     ethr =  9.25E-05,  avg # of iterations =  5.3

     total cpu time spent up to now is       53.1 secs

     total energy              =   -1454.13048006 Ry
     estimated scf accuracy    <       0.00530564 Ry

     iteration #  8     ecut=    70.00 Ry     beta= 0.70
     Davidson diagonalization with overlap
     ethr =  1.26E-05,  avg # of iterations =  5.8

     total cpu time spent up to now is       59.5 secs

     total energy              =   -1454.13326855 Ry
     estimated scf accuracy    <       0.00796164 Ry

     iteration #  9     ecut=    70.00 Ry     beta= 0.70
     Davidson diagonalization with overlap
     ethr =  1.26E-05,  avg # of iterations =  2.8

     total cpu time spent up to now is       65.3 secs

     total energy              =   -1454.12479343 Ry
     estimated scf accuracy    <       0.01438010 Ry

     iteration # 10     ecut=    70.00 Ry     beta= 0.70
     Davidson diagonalization with overlap
     ethr =  1.26E-05,  avg # of iterations =  8.9

     total cpu time spent up to now is       74.5 secs

     total energy              =   -1454.12995527 Ry
     estimated scf accuracy    <       0.01185926 Ry

     iteration # 11     ecut=    70.00 Ry     beta= 0.70
     Davidson diagonalization with overlap
     ethr =  1.26E-05,  avg # of iterations =  1.9

     total cpu time spent up to now is       80.5 secs

     total energy              =   -1454.12926016 Ry
     estimated scf accuracy    <       0.00625805 Ry

     iteration # 12     ecut=    70.00 Ry     beta= 0.70
     Davidson diagonalization with overlap
     ethr =  1.26E-05,  avg # of iterations =  2.0

     total cpu time spent up to now is       86.5 secs

     total energy              =   -1454.12888708 Ry
     estimated scf accuracy    <       0.00321978 Ry

     iteration # 13     ecut=    70.00 Ry     beta= 0.70
     Davidson diagonalization with overlap
     ethr =  7.67E-06,  avg # of iterations =  5.9

     total cpu time spent up to now is       93.1 secs

     total energy              =   -1454.13007544 Ry
     estimated scf accuracy    <       0.00032086 Ry

     iteration # 14     ecut=    70.00 Ry     beta= 0.70
     Davidson diagonalization with overlap
     c_bands:  1 eigenvalues not converged
     c_bands:  1 eigenvalues not converged
     ethr =  7.64E-07,  avg # of iterations =  8.7

     total cpu time spent up to now is      101.0 secs

     total energy              =   -1454.13073537 Ry
     estimated scf accuracy    <       0.00013106 Ry

     iteration # 15     ecut=    70.00 Ry     beta= 0.70
     Davidson diagonalization with overlap
     ethr =  3.12E-07,  avg # of iterations =  7.6

     total cpu time spent up to now is      109.3 secs

     total energy              =   -1454.13071872 Ry
     estimated scf accuracy    <       0.00119325 Ry

     iteration # 16     ecut=    70.00 Ry     beta= 0.70
     Davidson diagonalization with overlap
     ethr =  3.12E-07,  avg # of iterations =  4.1

     total cpu time spent up to now is      115.3 secs

     total energy              =   -1454.13058308 Ry
     estimated scf accuracy    <       0.00063038 Ry

     iteration # 17     ecut=    70.00 Ry     beta= 0.70
     Davidson diagonalization with overlap
     ethr =  3.12E-07,  avg # of iterations =  6.9

     total cpu time spent up to now is      122.6 secs

     total energy              =   -1454.13064626 Ry
     estimated scf accuracy    <       0.00006051 Ry

     iteration # 18     ecut=    70.00 Ry     beta= 0.70
     Davidson diagonalization with overlap
     ethr =  1.44E-07,  avg # of iterations =  4.9

     total cpu time spent up to now is      129.0 secs

     total energy              =   -1454.13065693 Ry
     estimated scf accuracy    <       0.00002197 Ry

     iteration # 19     ecut=    70.00 Ry     beta= 0.70
     Davidson diagonalization with overlap
     ethr =  5.23E-08,  avg # of iterations =  5.9

     total cpu time spent up to now is      135.8 secs

     total energy              =   -1454.13066868 Ry
     estimated scf accuracy    <       0.00003935 Ry

     iteration # 20     ecut=    70.00 Ry     beta= 0.70
     Davidson diagonalization with overlap
     ethr =  5.23E-08,  avg # of iterations =  2.1

     total cpu time spent up to now is      141.7 secs

     total energy              =   -1454.13066136 Ry
     estimated scf accuracy    <       0.00005245 Ry

     iteration # 21     ecut=    70.00 Ry     beta= 0.70
     Davidson diagonalization with overlap
     ethr =  5.23E-08,  avg # of iterations =  1.8

     total cpu time spent up to now is      147.7 secs

     total energy              =   -1454.13066107 Ry
     estimated scf accuracy    <       0.00003685 Ry

     iteration # 22     ecut=    70.00 Ry     beta= 0.70
     Davidson diagonalization with overlap
     ethr =  5.23E-08,  avg # of iterations =  4.2

     total cpu time spent up to now is      154.5 secs

     total energy              =   -1454.13069208 Ry
     estimated scf accuracy    <       0.00004739 Ry

     iteration # 23     ecut=    70.00 Ry     beta= 0.70
     Davidson diagonalization with overlap
     c_bands:  1 eigenvalues not converged
     ethr =  5.23E-08,  avg # of iterations =  9.3

     total cpu time spent up to now is      163.2 secs

     total energy              =   -1454.13076540 Ry
     estimated scf accuracy    <       0.00035567 Ry

     iteration # 24     ecut=    70.00 Ry     beta= 0.70
     Davidson diagonalization with overlap
     c_bands:  1 eigenvalues not converged
     ethr =  5.23E-08,  avg # of iterations =  7.1

     total cpu time spent up to now is      170.9 secs

     total energy              =   -1454.13073417 Ry
     estimated scf accuracy    <       0.00066580 Ry

     iteration # 25     ecut=    70.00 Ry     beta= 0.70
     Davidson diagonalization with overlap
     ethr =  5.23E-08,  avg # of iterations =  2.2

     total cpu time spent up to now is      176.6 secs

     total energy              =   -1454.13058836 Ry
     estimated scf accuracy    <       0.00056955 Ry

     iteration # 26     ecut=    70.00 Ry     beta= 0.70
     Davidson diagonalization with overlap
     c_bands:  2 eigenvalues not converged
     ethr =  5.23E-08,  avg # of iterations = 11.5

     total cpu time spent up to now is      186.4 secs

     total energy              =   -1454.13064632 Ry
     estimated scf accuracy    <       0.00003729 Ry

     iteration # 27     ecut=    70.00 Ry     beta= 0.70
     Davidson diagonalization with overlap
     ethr =  5.23E-08,  avg # of iterations =  3.6

     total cpu time spent up to now is      192.8 secs

     total energy              =   -1454.13065436 Ry
     estimated scf accuracy    <       0.00001128 Ry

     iteration # 28     ecut=    70.00 Ry     beta= 0.70
     Davidson diagonalization with overlap
     ethr =  2.69E-08,  avg # of iterations =  3.8

     total cpu time spent up to now is      199.2 secs

     total energy              =   -1454.13065401 Ry
     estimated scf accuracy    <       0.00000583 Ry

     iteration # 29     ecut=    70.00 Ry     beta= 0.70
     Davidson diagonalization with overlap
     ethr =  1.39E-08,  avg # of iterations =  4.8

     total cpu time spent up to now is      205.7 secs

     total energy              =   -1454.13065529 Ry
     estimated scf accuracy    <       0.00000062 Ry

     iteration # 30     ecut=    70.00 Ry     beta= 0.70
     Davidson diagonalization with overlap
     ethr =  1.48E-09,  avg # of iterations =  6.2

     total cpu time spent up to now is      212.9 secs

     total energy              =   -1454.13065561 Ry
     estimated scf accuracy    <       0.00000014 Ry

     iteration # 31     ecut=    70.00 Ry     beta= 0.70
     Davidson diagonalization with overlap
     ethr =  3.24E-10,  avg # of iterations =  4.8

     total cpu time spent up to now is      219.3 secs

     End of self-consistent calculation

          k = 0.0000 0.0000 0.0000 (  5449 PWs)   bands (ev):

   -16.1006 -12.9437 -12.7921 -12.4769 -12.4309 -12.4309  -8.1805  -6.0307
    -2.3116  -1.3173  -1.2493  -1.2493   4.3469   4.3469   5.0664   5.1025
     8.1446   8.2208   8.2208   8.8498   9.8597

          k = 0.0000 0.0000 0.2000 (  5482 PWs)   bands (ev):

   -16.0893 -12.9032 -12.7657 -12.4805 -12.4345 -12.4308  -8.0753  -6.3203
    -2.6559  -1.2801  -1.2114  -1.0325   3.3648   4.3496   5.0702   6.6388
     8.0704   8.1644   8.2663   8.7198   9.5830

          k = 0.0000 0.0000 0.4000 (  5506 PWs)   bands (ev):

   -16.0708 -12.8677 -12.6889 -12.4864 -12.4404 -12.4307  -7.7093  -7.0126
    -2.9876  -1.2181  -1.1484  -0.9047   2.9411   4.3460   5.0587   7.0964
     8.0759   8.0819   8.4226   8.5976   9.3525

          k = 0.0000 0.2000 0.2000 (  5467 PWs)   bands (ev):

   -16.0783 -12.9020 -12.7425 -12.4803 -12.4375 -12.4342  -8.0567  -6.3103
    -2.7543  -1.2465  -1.1784  -1.0175   2.0697   4.3635   5.7455   6.9969
     7.8456   8.0350   8.2681   9.5942   9.6348

          k = 0.0000 0.2000 0.4000 (  5484 PWs)   bands (ev):

   -16.0617 -12.8622 -12.6682 -12.4861 -12.4426 -12.4340  -7.6729  -6.9981
    -3.0389  -1.2631  -1.1256  -0.9129   1.5441   4.4189   6.5840   7.1337
     7.7033   7.9228   8.4590   9.2740   9.3175

          k = 0.0000 0.4000 0.4000 (  5500 PWs)   bands (ev):

   -16.0469 -12.8553 -12.6324 -12.4857 -12.4461 -12.4395  -7.6223  -6.9528
    -3.1520  -1.3389  -1.0879  -0.8252   0.2430   4.5414   7.0179   7.5646
     7.6851   7.7916   8.6549   9.1365   9.9316

          k = 0.2000 0.2000 0.2000 (  5500 PWs)   bands (ev):

   -16.0687 -12.8459 -12.7294 -12.4837 -12.4379 -12.4372  -7.9569  -6.5157
    -2.9631  -1.2621  -1.2512  -0.9595   1.4017   5.3903   5.9758   6.9356
     7.8148   7.9997   8.3789   9.4168   9.8224

          k = 0.2000 0.2000 0.4000 (  5490 PWs)   bands (ev):

   -16.0531 -12.7905 -12.6679 -12.4890 -12.4429 -12.4376  -7.6221  -7.0544
    -3.2391  -1.3049  -1.2179  -1.0862   0.9687   5.7261   6.7465   6.9887
     7.7437   8.0910   8.4316   9.2816   9.5673

          k = 0.2000 0.4000 0.4000 (  5524 PWs)   bands (ev):

   -16.0387 -12.7835 -12.6313 -12.4895 -12.4475 -12.4432  -7.5702  -7.0146
    -3.0902  -1.4077  -1.2518  -1.0638  -0.4694   5.8707   7.2003   7.4999
     7.7840   8.1054   8.6240   9.5107  10.0200

          k = 0.4000 0.4000 0.4000 (  5502 PWs)   bands (ev):

   -16.0255 -12.6690 -12.6217 -12.4956 -12.4499 -12.4490  -7.4162  -7.1945
    -3.0399  -1.5299  -1.5004  -1.4452  -1.1236   7.3322   7.6131   7.7377
     7.8207   8.7367   8.7594   9.9947  10.1648

          k = 0.0000 0.2000 0.0000 (  5482 PWs)   bands (ev):

   -16.0884 -12.9433 -12.7692 -12.4768 -12.4344 -12.4344  -8.1702  -6.0260
    -2.4741  -1.2347  -1.2104  -1.2104   3.0243   4.3276   4.3276   7.0345
     7.9534   8.1066   8.1066   9.5345   9.8269

          k = 0.0000 0.4000 0.0000 (  5506 PWs)   bands (ev):

   -16.0685 -12.9426 -12.7321 -12.4767 -12.4402 -12.4402  -8.1500  -6.0185
    -2.6908  -1.1866  -1.1455  -1.1455   1.9523   4.2866   4.2866   7.2658
     7.6806   7.9513   7.9513   9.7746   9.7746

          k = 0.2000 0.0000 0.2000 (  5467 PWs)   bands (ev):

   -16.0789 -12.8463 -12.7542 -12.4836 -12.4344 -12.4342  -7.9811  -6.5286
    -2.9438  -1.2484  -1.2449  -0.9847   2.6153   5.1247   5.3874   6.8408
     7.9655   8.0845   8.3953   8.5696   9.6394

          k = 0.2000 0.4000 0.0000 (  5484 PWs)   bands (ev):

   -16.0602 -12.9004 -12.7046 -12.4800 -12.4425 -12.4399  -8.0235  -6.2921
    -2.8945  -1.2468  -1.1237  -0.9856   0.9834   4.3793   5.8681   7.2023
     7.6907   7.8549   8.1395   9.5095   9.8196

          k = 0.4000 0.0000 0.2000 (  5484 PWs)   bands (ev):

   -16.0619 -12.7970 -12.6882 -12.4887 -12.4401 -12.4340  -7.6561  -7.0725
    -3.3059  -1.2138  -1.1960  -1.0666   2.2551   5.2048   5.8543   6.8724
     7.9160   8.2335   8.3372   8.7030   9.4183

          k = 0.4000 0.0000 0.4000 (  5500 PWs)   bands (ev):

   -16.0473 -12.6947 -12.6695 -12.4923 -12.4397 -12.4396  -7.4893  -7.2510
    -3.8476  -1.2832  -1.2398  -1.1596   1.8221   5.4850   6.5998   7.5374
     7.7060   7.8505   8.7691   8.9152   9.4063

          k = 0.2000 0.4000 0.2000 (  5490 PWs)   bands (ev):

   -16.0521 -12.8453 -12.6890 -12.4837 -12.4439 -12.4417  -7.9142  -6.4945
    -2.9659  -1.3078  -1.2620  -0.8984   0.1889   5.3903   6.3364   7.2356
     7.7069   7.8628   8.2372   9.4735   9.9694

          k = 0.4000 0.2000 0.4000 (  5524 PWs)   bands (ev):

   -16.0390 -12.6693 -12.6671 -12.4936 -12.4436 -12.4433  -7.4619  -7.2297
    -3.6399  -1.3516  -1.3454  -1.2520   0.4741   6.8583   6.9595   7.5673
     7.7434   7.9028   8.7730   9.3448   9.6555

     highest occupied level (ev):    10.1648

!    total energy              =   -1454.13065561 Ry
     total all-electron energy =    -59743.674346 Ry
     estimated scf accuracy    <       0.00000005 Ry

     The total energy is the sum of the following terms:
     one-electron contribution =     -69.55140985 Ry
     hartree contribution      =      66.28775124 Ry
     xc contribution           =     -73.58038008 Ry
     ewald contribution        =    -218.57418448 Ry
     one-center paw contrib.   =   -1158.71243244 Ry

     convergence has been achieved in  31 iterations

     Forces acting on atoms (cartesian axes, Ry/au):

     atom    1 type  1   force =     0.00000000    0.00000000    0.00000000
     atom    2 type  2   force =     0.00000000    0.00000000    0.00000000
     atom    3 type  4   force =     0.00000000    0.00000000    0.00000000
     atom    4 type  4   force =     0.00000000    0.00000000    0.00000000
     atom    5 type  3   force =     0.00000000    0.00000000    0.00000000

     Total force =     0.000000     Total SCF correction =     0.000000


     Computing stress (Cartesian axis) and pressure

          total   stress  (Ry/bohr**3)                   (kbar)     P=       17.72
   0.00018760   0.00000000   0.00000000           27.60        0.00        0.00
   0.00000000  -0.00001378   0.00000000            0.00       -2.03        0.00
   0.00000000   0.00000000   0.00018760            0.00        0.00       27.60


     init_run     :      4.60s CPU      5.01s WALL (       1 calls)
     electrons    :    196.06s CPU    213.15s WALL (       1 calls)
     forces       :      1.38s CPU      1.56s WALL (       1 calls)
     stress       :      7.88s CPU      8.38s WALL (       1 calls)

     Called by init_run:
     wfcinit      :      1.66s CPU      1.76s WALL (       1 calls)
     potinit      :      0.80s CPU      0.85s WALL (       1 calls)
     hinit0       :      1.57s CPU      1.62s WALL (       1 calls)

     Called by electrons:
     c_bands      :    123.10s CPU    125.54s WALL (      31 calls)
     sum_band     :     36.75s CPU     44.59s WALL (      31 calls)
     v_of_rho     :      3.52s CPU      3.63s WALL (      32 calls)
     newd         :     15.88s CPU     22.52s WALL (      32 calls)
     PAW_pot      :     16.85s CPU     17.07s WALL (      32 calls)
     mix_rho      :      0.65s CPU      0.66s WALL (      31 calls)

     Called by c_bands:
     init_us_2    :      3.11s CPU      3.23s WALL (    1170 calls)
     init_us_2:cp :      3.10s CPU      3.22s WALL (    1170 calls)
     cegterg      :    116.45s CPU    118.73s WALL (     558 calls)

     Called by *egterg:
     cdiaghg      :      2.86s CPU      2.93s WALL (    3334 calls)
     h_psi        :     93.85s CPU     95.74s WALL (    3352 calls)
     s_psi        :      4.59s CPU      4.68s WALL (    3352 calls)
     g_psi        :      0.51s CPU      0.52s WALL (    2776 calls)

     Called by h_psi:
     h_psi:calbec :      5.50s CPU      5.60s WALL (    3352 calls)
     vloc_psi     :     82.59s CPU     84.28s WALL (    3352 calls)
     add_vuspsi   :      5.28s CPU      5.38s WALL (    3352 calls)

     General routines
     calbec       :      7.23s CPU      7.37s WALL (    4000 calls)
     fft          :      2.19s CPU      2.27s WALL (     439 calls)
     ffts         :      0.21s CPU      0.21s WALL (      63 calls)
     fftw         :     87.36s CPU     89.13s WALL (   78780 calls)
     interpolate  :      0.32s CPU      0.32s WALL (      32 calls)

     Parallel routines

     PWSCF        :   3m31.03s CPU   3m49.30s WALL


   This run was terminated on:   7:22:43   6May2024            

=------------------------------------------------------------------------------=
   JOB DONE.
=------------------------------------------------------------------------------=
