
     Program PWSCF v.7.1 starts on  6May2024 at  1:14:51 

     This program is part of the open-source Quantum ESPRESSO suite
     for quantum simulation of materials; please cite
         "P. Giannozzi et al., J. Phys.:Condens. Matter 21 395502 (2009);
         "P. Giannozzi et al., J. Phys.:Condens. Matter 29 465901 (2017);
         "P. Giannozzi et al., J. Chem. Phys. 152 154105 (2020);
          URL http://www.quantum-espresso.org", 
     in publications or presentations arising from this work. More details at
     http://www.quantum-espresso.org/quote

     Parallel version (MPI), running on     2 processors

     MPI processes distributed on     1 nodes
     13557 MiB available memory on the printing compute node when the environment starts

     Waiting for input...
     Reading input from standard input
Warning: card &CELL ignored
Warning: card / ignored

     Current dimensions of program PWSCF are:
     Max number of different atomic species (ntypx) = 10
     Max number of k-points (npk) =  40000
     Max angular momentum in pseudopotentials (lmaxx) =  4
     file Ba.pbe-spn-kjpaw_psl.1.0.0.UPF: wavefunction(s)  5S 6S renormalized
     file Bi.pbe-dn-kjpaw_psl.1.0.0.UPF: wavefunction(s)  6P 5D renormalized
     file O.pbe-n-kjpaw_psl.1.0.0.UPF: wavefunction(s)  2S 2P renormalized
     Message from routine setup:
     using ibrav=0 with symmetry is DISCOURAGED, use correct ibrav instead

     R & G space division:  proc/nbgrp/npool/nimage =       2
     Subspace diagonalization in iterative solution of the eigenvalue problem:
     a serial algorithm will be used


     Parallelization info
     --------------------
     sticks:   dense  smooth     PW     G-vecs:    dense   smooth      PW
     Min         890     442    138                28332    10002    1702
     Max         891     443    139                28335    10003    1705
     Sum        1781     885    277                56667    20005    3407

     Using Slab Decomposition



     bravais-lattice index     =            0
     lattice parameter (alat)  =       8.3715  a.u.
     unit-cell volume          =     586.6888 (a.u.)^3
     number of atoms/cell      =            5
     number of atomic types    =            3
     number of electrons       =        43.00
     number of Kohn-Sham states=           26
     kinetic-energy cutoff     =      40.0000  Ry
     charge density cutoff     =     320.0000  Ry
     scf convergence threshold =      1.0E-07
     mixing beta               =       0.7000
     number of iterations used =            8  plain     mixing
     Exchange-correlation= SLA  PW   PBX  PBC
                           (   1   4   3   4   0   0   0)

     celldm(1)=   8.371487  celldm(2)=   0.000000  celldm(3)=   0.000000
     celldm(4)=   0.000000  celldm(5)=   0.000000  celldm(6)=   0.000000

     crystal axes: (cart. coord. in units of alat)
               a(1) = (   1.000000   0.000000   0.000000 )  
               a(2) = (   0.000000   1.000000   0.000000 )  
               a(3) = (   0.000000   0.000000   1.000000 )  

     reciprocal axes: (cart. coord. in units 2 pi/alat)
               b(1) = (  1.000000  0.000000  0.000000 )  
               b(2) = (  0.000000  1.000000  0.000000 )  
               b(3) = (  0.000000  0.000000  1.000000 )  


     PseudoPot. # 1 for Ba read from file:
     /home/bond/Software/qe-7.1/pseudo/Ba.pbe-spn-kjpaw_psl.1.0.0.UPF
     MD5 check sum: 7cfe25f1fe7574a4710541d5a11d6531
     Pseudo is Projector augmented-wave + core cor, Zval = 10.0
     Generated using &quot;atomic&quot; code by A. Dal Corso  v.6.2.2
     Shape of augmentation charge: PSQ
     Using radial grid of 1251 points,  7 beta functions with: 
                l(1) =   0
                l(2) =   0
                l(3) =   0
                l(4) =   1
                l(5) =   1
                l(6) =   2
                l(7) =   2
     Q(r) pseudized with 0 coefficients 


     PseudoPot. # 2 for Bi read from file:
     /home/bond/Software/qe-7.1/pseudo/Bi.pbe-dn-kjpaw_psl.1.0.0.UPF
     MD5 check sum: 266ded784ae3bc462508ed03f0f37963
     Pseudo is Projector augmented-wave + core cor, Zval = 15.0
     Generated using &quot;atomic&quot; code by A. Dal Corso  v.6.2.2
     Shape of augmentation charge: PSQ
     Using radial grid of 1283 points,  6 beta functions with: 
                l(1) =   0
                l(2) =   0
                l(3) =   1
                l(4) =   1
                l(5) =   2
                l(6) =   2
     Q(r) pseudized with 0 coefficients 


     PseudoPot. # 3 for O  read from file:
     /home/bond/Software/qe-7.1/pseudo/O.pbe-n-kjpaw_psl.1.0.0.UPF
     MD5 check sum: e99d9cef9b487d1ca56f5b95ecd0fd7a
     Pseudo is Projector augmented-wave + core cor, Zval =  6.0
     Generated using &quot;atomic&quot; code by A. Dal Corso  v.6.3
     Shape of augmentation charge: PSQ
     Using radial grid of 1095 points,  4 beta functions with: 
                l(1) =   0
                l(2) =   0
                l(3) =   1
                l(4) =   1
     Q(r) pseudized with 0 coefficients 


     atomic species   valence    mass     pseudopotential
        Ba            10.00   137.32700     Ba( 1.00)
        Bi            15.00   208.98040     Bi( 1.00)
        O              6.00    15.99900     O ( 1.00)

     48 Sym. Ops., with inversion, found



   Cartesian axes

     site n.     atom                  positions (alat units)
         1           Ba  tau(   1) = (   0.5000000   0.5000000   0.5000000  )
         2           Bi  tau(   2) = (   0.0000000   0.0000000   0.0000000  )
         3           O   tau(   3) = (   0.0000000   0.0000000   0.5000000  )
         4           O   tau(   4) = (   0.5000000   0.0000000   0.0000000  )
         5           O   tau(   5) = (   0.0000000   0.5000000   0.0000000  )

     number of k points=    10  Methfessel-Paxton smearing, width (Ry)=  0.0200
                       cart. coord. in units 2pi/alat
        k(    1) = (   0.0000000   0.0000000   0.0000000), wk =   0.0312500
        k(    2) = (   0.0000000   0.0000000   0.2500000), wk =   0.1875000
        k(    3) = (   0.0000000   0.0000000  -0.5000000), wk =   0.0937500
        k(    4) = (   0.0000000   0.2500000   0.2500000), wk =   0.3750000
        k(    5) = (   0.0000000   0.2500000  -0.5000000), wk =   0.3750000
        k(    6) = (   0.0000000  -0.5000000  -0.5000000), wk =   0.0937500
        k(    7) = (   0.2500000   0.2500000   0.2500000), wk =   0.2500000
        k(    8) = (   0.2500000   0.2500000  -0.5000000), wk =   0.3750000
        k(    9) = (   0.2500000  -0.5000000  -0.5000000), wk =   0.1875000
        k(   10) = (  -0.5000000  -0.5000000  -0.5000000), wk =   0.0312500

     Dense  grid:    56667 G-vectors     FFT dimensions: (  48,  48,  48)

     Smooth grid:    20005 G-vectors     FFT dimensions: (  36,  36,  36)

     Estimated max dynamical RAM per process >     124.66 MB

     Estimated total dynamical RAM >     249.33 MB

     Check: negative core charge=   -0.000002

     Initial potential from superposition of free atoms

     starting charge      42.9822, renormalised to      43.0000
     Starting wfcs are   26 randomized atomic wfcs
     Checking if some PAW data can be deallocated... 

     total cpu time spent up to now is        4.1 secs

     Self-consistent Calculation

     iteration #  1     ecut=    40.00 Ry     beta= 0.70
     Davidson diagonalization with overlap
     ethr =  1.00E-02,  avg # of iterations =  6.5
     Minimization algorithm failed to find Fermi energy: reverting to bisection
     Possible cause: smearing is larger than the electronic band-gap.

     total cpu time spent up to now is        6.7 secs

     total energy              =   -1466.96317601 Ry
     estimated scf accuracy    <       1.41345090 Ry

     iteration #  2     ecut=    40.00 Ry     beta= 0.70
     Davidson diagonalization with overlap
     ethr =  3.29E-03,  avg # of iterations =  4.9

     total cpu time spent up to now is        9.6 secs

     total energy              =   -1467.22458183 Ry
     estimated scf accuracy    <       2.88476116 Ry

     iteration #  3     ecut=    40.00 Ry     beta= 0.70
     Davidson diagonalization with overlap
     ethr =  3.29E-03,  avg # of iterations =  4.2

     total cpu time spent up to now is       12.3 secs

     total energy              =   -1467.66110785 Ry
     estimated scf accuracy    <       0.05889918 Ry

     iteration #  4     ecut=    40.00 Ry     beta= 0.70
     Davidson diagonalization with overlap
     ethr =  1.37E-04,  avg # of iterations =  8.5

     total cpu time spent up to now is       15.7 secs

     total energy              =   -1467.74127348 Ry
     estimated scf accuracy    <       0.06427752 Ry

     iteration #  5     ecut=    40.00 Ry     beta= 0.70
     Davidson diagonalization with overlap
     ethr =  1.37E-04,  avg # of iterations =  1.3

     total cpu time spent up to now is       17.9 secs

     total energy              =   -1467.73965551 Ry
     estimated scf accuracy    <       0.01273541 Ry

     iteration #  6     ecut=    40.00 Ry     beta= 0.70
     Davidson diagonalization with overlap
     ethr =  2.96E-05,  avg # of iterations =  7.7

     total cpu time spent up to now is       20.7 secs

     total energy              =   -1467.74705945 Ry
     estimated scf accuracy    <       0.00328171 Ry

     iteration #  7     ecut=    40.00 Ry     beta= 0.70
     Davidson diagonalization with overlap
     ethr =  7.63E-06,  avg # of iterations =  3.1

     total cpu time spent up to now is       23.1 secs

     total energy              =   -1467.74656865 Ry
     estimated scf accuracy    <       0.00197439 Ry

     iteration #  8     ecut=    40.00 Ry     beta= 0.70
     Davidson diagonalization with overlap
     ethr =  4.59E-06,  avg # of iterations =  2.0

     total cpu time spent up to now is       25.5 secs

     total energy              =   -1467.74664929 Ry
     estimated scf accuracy    <       0.00034172 Ry

     iteration #  9     ecut=    40.00 Ry     beta= 0.70
     Davidson diagonalization with overlap
     ethr =  7.95E-07,  avg # of iterations =  5.4

     total cpu time spent up to now is       28.4 secs

     total energy              =   -1467.74674808 Ry
     estimated scf accuracy    <       0.00000268 Ry

     iteration # 10     ecut=    40.00 Ry     beta= 0.70
     Davidson diagonalization with overlap
     ethr =  6.24E-09,  avg # of iterations =  7.3

     total cpu time spent up to now is       31.5 secs

     total energy              =   -1467.74675582 Ry
     estimated scf accuracy    <       0.00000094 Ry

     iteration # 11     ecut=    40.00 Ry     beta= 0.70
     Davidson diagonalization with overlap
     ethr =  2.20E-09,  avg # of iterations =  2.0

     total cpu time spent up to now is       33.9 secs

     total energy              =   -1467.74675568 Ry
     estimated scf accuracy    <       0.00000039 Ry

     iteration # 12     ecut=    40.00 Ry     beta= 0.70
     Davidson diagonalization with overlap
     ethr =  9.10E-10,  avg # of iterations =  4.1

     total cpu time spent up to now is       36.6 secs

     End of self-consistent calculation

          k = 0.0000 0.0000 0.0000 (  2517 PWs)   bands (ev):

   -17.3288 -13.1606 -13.1606 -12.7796 -12.7796 -12.7796  -8.8829  -6.5627
    -6.5627  -2.4395  -2.4395  -2.4395   3.2147   4.0365   4.0365   4.0365
     7.6423   7.6423   7.6423   7.8645   7.8645   7.8645  12.9893  12.9893
    14.0276  14.9178

          k = 0.0000 0.0000 0.2500 (  2501 PWs)   bands (ev):

   -17.3169 -13.1589 -13.0807 -12.7816 -12.7816 -12.7764  -8.7294  -7.0244
    -6.5567  -2.4016  -2.4016  -2.3813   1.6703   4.0465   4.0465   6.0263
     7.3770   7.5285   7.5285   7.7486   7.7486   8.2150  13.6518  13.6690
    15.0421  15.3669

          k = 0.0000 0.0000-0.5000 (  2496 PWs)   bands (ev):

   -17.3049 -13.1600 -12.9969 -12.7854 -12.7854 -12.7745  -8.4046  -7.6497
    -6.5509  -2.3630  -2.3630  -2.3405   1.0699   4.0493   4.0493   6.3986
     7.1490   7.4875   7.4875   7.5815   7.5815   9.7675  14.1349  14.3533
    15.7511  15.7512

          k = 0.0000 0.2500 0.2500 (  2512 PWs)   bands (ev):

   -17.3064 -13.1213 -13.0357 -12.7858 -12.7823 -12.7813  -8.5710  -7.1662
    -6.8165  -2.4469  -2.3716  -2.3580   0.5978   4.1206   5.4425   6.1396
     7.0258   7.3898   7.5919   7.6617   8.0327   8.6716  14.0140  14.4394
    15.1070  15.4721

          k = 0.0000 0.2500-0.5000 (  2522 PWs)   bands (ev):

   -17.2958 -13.1110 -12.9597 -12.7911 -12.7878 -12.7829  -8.2197  -7.6811
    -6.8990  -2.4240  -2.4141  -2.3410   0.0296   4.1943   5.8490   6.2738
     7.1127   7.3371   7.3663   7.6011   8.0327  10.1762  14.3141  14.8033
    15.0707  15.8316

          k = 0.0000-0.5000-0.5000 (  2496 PWs)   bands (ev):

   -17.2866 -13.0832 -12.8943 -12.7910 -12.7863 -12.7863  -7.7129  -7.7129
    -7.5840  -2.4810  -2.4810  -2.3188  -0.5634   4.3581   6.0972   7.1668
     7.1668   7.2670   7.2670   7.6237   8.3705  11.3230  14.1818  14.1818
    14.6840  15.1012

          k = 0.2500 0.2500 0.2500 (  2494 PWs)   bands (ev):

   -17.2967 -13.0345 -13.0345 -12.7849 -12.7849 -12.7846  -8.4221  -7.1450
    -7.1450  -2.4764  -2.4764  -2.3328  -0.3400   5.5099   5.5099   6.2094
     7.0527   7.0527   7.9458   7.9458   8.0139   9.0056  14.2804  14.2804
    14.8576  15.3476

          k = 0.2500 0.2500-0.5000 (  2516 PWs)   bands (ev):

   -17.2870 -13.0357 -12.9463 -12.7915 -12.7909 -12.7871  -8.0764  -7.6813
    -7.1236  -2.5064  -2.4920  -2.4030  -0.9182   5.5744   6.2518   6.4249
     6.9169   7.2138   7.7790   7.8690   8.1329  10.4573  13.5998  14.2787
    14.7717  15.2430

          k = 0.2500-0.5000-0.5000 (  2484 PWs)   bands (ev):

   -17.2782 -12.9911 -12.8952 -12.7927 -12.7892 -12.7892  -7.6822  -7.6822
    -7.6149  -2.5624  -2.5624  -2.4862  -1.5483   6.0405   6.5035   6.9409
     6.9409   7.6297   7.8966   7.8966   8.3956  11.5369  13.0696  13.0696
    13.8525  15.6789

          k =-0.5000-0.5000-0.5000 (  2512 PWs)   bands (ev):

   -17.2697 -12.8967 -12.8967 -12.7969 -12.7969 -12.7969  -7.6508  -7.6508
    -7.6508  -2.6433  -2.6433  -2.6433  -2.2545   6.9081   6.9081   6.9081
     7.6341   7.6341   8.4201   8.4201   8.4201  12.1799  12.1799  12.1799
    12.6865  16.6768

     the Fermi energy is    10.0671 ev

!    total energy              =   -1467.74675580 Ry
     total all-electron energy =    -59784.838539 Ry
     estimated scf accuracy    <       0.00000003 Ry
     smearing contrib. (-TS)   =      -0.00007764 Ry
     internal energy E=F+TS    =   -1467.74667817 Ry

     The total energy is F=E-TS. E is the sum of the following terms:
     one-electron contribution =     -84.09787200 Ry
     hartree contribution      =      73.67782903 Ry
     xc contribution           =     -75.26811223 Ry
     ewald contribution        =    -221.76066282 Ry
     one-center paw contrib.   =   -1160.29786014 Ry

     convergence has been achieved in  12 iterations

     Forces acting on atoms (cartesian axes, Ry/au):

     atom    1 type  1   force =     0.00000000    0.00000000    0.00000000
     atom    2 type  2   force =     0.00000000    0.00000000    0.00000000
     atom    3 type  3   force =     0.00000000    0.00000000    0.00000000
     atom    4 type  3   force =     0.00000000    0.00000000    0.00000000
     atom    5 type  3   force =     0.00000000    0.00000000    0.00000000

     Total force =     0.000000     Total SCF correction =     0.000000


     Computing stress (Cartesian axis) and pressure

          total   stress  (Ry/bohr**3)                   (kbar)     P=      -61.98
  -0.00042132   0.00000000   0.00000000          -61.98        0.00        0.00
   0.00000000  -0.00042132   0.00000000            0.00      -61.98        0.00
   0.00000000   0.00000000  -0.00042132            0.00        0.00      -61.98


     init_run     :      2.59s CPU      3.01s WALL (       1 calls)
     electrons    :     28.70s CPU     32.52s WALL (       1 calls)
     forces       :      0.58s CPU      0.71s WALL (       1 calls)
     stress       :      3.25s CPU      3.73s WALL (       1 calls)

     Called by init_run:
     wfcinit      :      0.39s CPU      0.44s WALL (       1 calls)
     potinit      :      0.81s CPU      0.88s WALL (       1 calls)
     hinit0       :      1.08s CPU      1.21s WALL (       1 calls)

     Called by electrons:
     c_bands      :     14.44s CPU     15.60s WALL (      12 calls)
     sum_band     :      4.85s CPU      6.12s WALL (      12 calls)
     v_of_rho     :      0.60s CPU      0.64s WALL (      13 calls)
     newd         :      2.59s CPU      3.71s WALL (      13 calls)
     PAW_pot      :      6.86s CPU      7.27s WALL (      13 calls)
     mix_rho      :      0.08s CPU      0.09s WALL (      12 calls)

     Called by c_bands:
     init_us_2    :      0.32s CPU      0.34s WALL (     270 calls)
     init_us_2:cp :      0.31s CPU      0.33s WALL (     270 calls)
     cegterg      :     13.79s CPU     14.91s WALL (     120 calls)

     Called by *egterg:
     cdiaghg      :      0.87s CPU      0.94s WALL (     690 calls)
     h_psi        :     10.52s CPU     11.40s WALL (     700 calls)
     s_psi        :      0.50s CPU      0.54s WALL (     700 calls)
     g_psi        :      0.06s CPU      0.08s WALL (     570 calls)

     Called by h_psi:
     h_psi:calbec :      0.62s CPU      0.67s WALL (     700 calls)
     vloc_psi     :      9.26s CPU     10.03s WALL (     700 calls)
     add_vuspsi   :      0.58s CPU      0.63s WALL (     700 calls)

     General routines
     calbec       :      0.88s CPU      0.97s WALL (     870 calls)
     fft          :      0.65s CPU      0.72s WALL (     192 calls)
     ffts         :      0.21s CPU      0.23s WALL (      25 calls)
     fftw         :      9.68s CPU     10.47s WALL (   21022 calls)
     interpolate  :      0.24s CPU      0.24s WALL (      13 calls)

     Parallel routines

     PWSCF        :     36.05s CPU     41.03s WALL


   This run was terminated on:   1:15:32   6May2024            

=------------------------------------------------------------------------------=
   JOB DONE.
=------------------------------------------------------------------------------=
