
     Program PWSCF v.7.1 starts on  6May2024 at  6:19:55 

     This program is part of the open-source Quantum ESPRESSO suite
     for quantum simulation of materials; please cite
         "P. Giannozzi et al., J. Phys.:Condens. Matter 21 395502 (2009);
         "P. Giannozzi et al., J. Phys.:Condens. Matter 29 465901 (2017);
         "P. Giannozzi et al., J. Chem. Phys. 152 154105 (2020);
          URL http://www.quantum-espresso.org", 
     in publications or presentations arising from this work. More details at
     http://www.quantum-espresso.org/quote

     Parallel version (MPI), running on     2 processors

     MPI processes distributed on     1 nodes
     13492 MiB available memory on the printing compute node when the environment starts

     Waiting for input...
     Reading input from standard input
Warning: card &CELL ignored
Warning: card / ignored

     Current dimensions of program PWSCF are:
     Max number of different atomic species (ntypx) = 10
     Max number of k-points (npk) =  40000
     Max angular momentum in pseudopotentials (lmaxx) =  4
     file Ba.pbe-spn-kjpaw_psl.1.0.0.UPF: wavefunction(s)  5S 6S renormalized
     Message from routine setup:
     using ibrav=0 with symmetry is DISCOURAGED, use correct ibrav instead

     R & G space division:  proc/nbgrp/npool/nimage =       2
     Subspace diagonalization in iterative solution of the eigenvalue problem:
     a serial algorithm will be used


     Parallelization info
     --------------------
     sticks:   dense  smooth     PW     G-vecs:    dense   smooth      PW
     Min        1406     701    199                47269    16702    2543
     Max        1407     702    200                47270    16703    2546
     Sum        2813    1403    399                94539    33405    5089

     Using Slab Decomposition



     bravais-lattice index     =            0
     lattice parameter (alat)  =       8.1828  a.u.
     unit-cell volume          =     421.7709 (a.u.)^3
     number of atoms/cell      =            1
     number of atomic types    =            1
     number of electrons       =        10.00
     number of Kohn-Sham states=            9
     kinetic-energy cutoff     =      70.0000  Ry
     charge density cutoff     =     560.0000  Ry
     scf convergence threshold =      1.0E-07
     mixing beta               =       0.7000
     number of iterations used =            8  plain     mixing
     energy convergence thresh.=      1.0E-04
     force convergence thresh. =      1.0E-03
     Exchange-correlation= SLA  PW   PBX  PBC
                           (   1   4   3   4   0   0   0)
     nstep                     =           50


     celldm(1)=   8.182754  celldm(2)=   0.000000  celldm(3)=   0.000000
     celldm(4)=   0.000000  celldm(5)=   0.000000  celldm(6)=   0.000000

     crystal axes: (cart. coord. in units of alat)
               a(1) = (  -0.577350   0.577350   0.577350 )  
               a(2) = (   0.577350  -0.577350   0.577350 )  
               a(3) = (   0.577350   0.577350  -0.577350 )  

     reciprocal axes: (cart. coord. in units 2 pi/alat)
               b(1) = (  0.000000  0.866025  0.866025 )  
               b(2) = (  0.866025  0.000000  0.866025 )  
               b(3) = (  0.866025  0.866025  0.000000 )  


     PseudoPot. # 1 for Ba read from file:
     /home/bond/Software/qe-7.1/pseudo/Ba.pbe-spn-kjpaw_psl.1.0.0.UPF
     MD5 check sum: 7cfe25f1fe7574a4710541d5a11d6531
     Pseudo is Projector augmented-wave + core cor, Zval = 10.0
     Generated using &quot;atomic&quot; code by A. Dal Corso  v.6.2.2
     Shape of augmentation charge: PSQ
     Using radial grid of 1251 points,  7 beta functions with: 
                l(1) =   0
                l(2) =   0
                l(3) =   0
                l(4) =   1
                l(5) =   1
                l(6) =   2
                l(7) =   2
     Q(r) pseudized with 0 coefficients 


     atomic species   valence    mass     pseudopotential
        Ba            10.00   137.32700     Ba( 1.00)

     48 Sym. Ops., with inversion, found



   Cartesian axes

     site n.     atom                  positions (alat units)
         1           Ba  tau(   1) = (   0.0000000   0.0000000   0.0000000  )

     number of k points=    10  Methfessel-Paxton smearing, width (Ry)=  0.0200
                       cart. coord. in units 2pi/alat
        k(    1) = (   0.0000000   0.0000000   0.0000000), wk =   0.0160000
        k(    2) = (   0.1732051   0.1732051   0.0000000), wk =   0.1920000
        k(    3) = (   0.3464102   0.3464102   0.0000000), wk =   0.1920000
        k(    4) = (   0.3464102   0.1732051   0.1732051), wk =   0.3840000
        k(    5) = (   0.5196152   0.3464102   0.1732051), wk =   0.3840000
        k(    6) = (   0.3464102   0.3464102   0.3464102), wk =   0.1280000
        k(    7) = (   0.0000000   0.0000000   0.3464102), wk =   0.0960000
        k(    8) = (   0.0000000  -0.1732051   0.5196152), wk =   0.3840000
        k(    9) = (  -0.6928203  -0.1732051  -0.1732051), wk =   0.1280000
        k(   10) = (   0.0000000   0.0000000   0.6928203), wk =   0.0960000

     Dense  grid:    94539 G-vectors     FFT dimensions: (  64,  64,  64)

     Smooth grid:    33405 G-vectors     FFT dimensions: (  45,  45,  45)

     Estimated max dynamical RAM per process >     193.39 MB

     Estimated total dynamical RAM >     386.78 MB

     Initial potential from superposition of free atoms

     starting charge       9.9830, renormalised to      10.0000
     Starting wfcs are    5 randomized atomic wfcs +    4 random wfcs
     Checking if some PAW data can be deallocated... 

     total cpu time spent up to now is        2.5 secs

     Self-consistent Calculation

     iteration #  1     ecut=    70.00 Ry     beta= 0.70
     Davidson diagonalization with overlap
     ethr =  1.00E-02,  avg # of iterations =  8.4

     Threshold (ethr) on eigenvalues was too large:
     Diagonalizing with lowered threshold

     Davidson diagonalization with overlap
     ethr =  8.20E-06,  avg # of iterations =  7.4

     total cpu time spent up to now is        6.9 secs

     total energy              =    -436.18150313 Ry
     estimated scf accuracy    <       0.00084443 Ry

     iteration #  2     ecut=    70.00 Ry     beta= 0.70
     Davidson diagonalization with overlap
     ethr =  8.44E-06,  avg # of iterations =  1.2

     total cpu time spent up to now is        8.7 secs

     total energy              =    -436.18161222 Ry
     estimated scf accuracy    <       0.00009489 Ry

     iteration #  3     ecut=    70.00 Ry     beta= 0.70
     Davidson diagonalization with overlap
     ethr =  9.49E-07,  avg # of iterations =  2.4

     total cpu time spent up to now is       10.4 secs

     total energy              =    -436.18162411 Ry
     estimated scf accuracy    <       0.00000339 Ry

     iteration #  4     ecut=    70.00 Ry     beta= 0.70
     Davidson diagonalization with overlap
     ethr =  3.39E-08,  avg # of iterations =  3.9

     total cpu time spent up to now is       12.1 secs

     total energy              =    -436.18162548 Ry
     estimated scf accuracy    <       0.00000091 Ry

     iteration #  5     ecut=    70.00 Ry     beta= 0.70
     Davidson diagonalization with overlap
     ethr =  9.13E-09,  avg # of iterations =  2.2

     total cpu time spent up to now is       13.8 secs

     total energy              =    -436.18162563 Ry
     estimated scf accuracy    <       0.00000015 Ry

     iteration #  6     ecut=    70.00 Ry     beta= 0.70
     Davidson diagonalization with overlap
     ethr =  1.46E-09,  avg # of iterations =  2.0

     total cpu time spent up to now is       15.5 secs

     End of self-consistent calculation

          k = 0.0000 0.0000 0.0000 (  4189 PWs)   bands (ev):

   -22.9610  -7.9022  -7.9022  -7.9022   3.1652   7.7579   7.7579   7.7579
     9.1670

          k = 0.1732 0.1732 0.0000 (  4148 PWs)   bands (ev):

   -22.9457  -8.0732  -7.9554  -7.9033   3.8583   7.2644   7.2899   8.5031
     8.8376

          k = 0.3464 0.3464 0.0000 (  4172 PWs)   bands (ev):

   -22.9206  -8.3310  -8.0393  -7.9053   4.9231   6.6909   6.9681   9.1750
     9.5484

          k = 0.3464 0.1732 0.1732 (  4178 PWs)   bands (ev):

   -22.9254  -8.2450  -8.0308  -7.9399   4.9131   6.6052   6.8916   8.7659
     9.6430

          k = 0.5196 0.3464 0.1732 (  4168 PWs)   bands (ev):

   -22.9128  -8.3160  -8.1206  -7.9503   5.5451   6.5509   6.7640   9.0102
     9.7430

          k = 0.3464 0.3464 0.3464 (  4147 PWs)   bands (ev):

   -22.9153  -8.2567  -8.0614  -8.0614   6.1001   6.3999   6.3999   9.7134
    10.5230

          k = 0.0000 0.0000 0.3464 (  4173 PWs)   bands (ev):

   -22.9316  -8.0982  -8.0118  -8.0118   4.4775   7.1909   7.6462   7.6462
     8.4803

          k = 0.0000-0.1732 0.5196 (  4173 PWs)   bands (ev):

   -22.9088  -8.2887  -8.1004  -8.0237   5.4763   6.3232   7.4003   8.0279
     9.7332

          k =-0.6928-0.1732-0.1732 (  4181 PWs)   bands (ev):

   -22.8985  -8.2427  -8.2427  -8.0474   5.9589   5.9589   6.9544   9.3129
     9.3129

          k = 0.0000 0.0000 0.6928 (  4204 PWs)   bands (ev):

   -22.8896  -8.2279  -8.1963  -8.1963   5.5664   5.5720   8.9940   8.9940
     9.4718

     the Fermi energy is     5.9787 ev

!    total energy              =    -436.18162564 Ry
     total all-electron energy =    -16271.274742 Ry
     estimated scf accuracy    <          5.7E-09 Ry
     smearing contrib. (-TS)   =       0.00076288 Ry
     internal energy E=F+TS    =    -436.18238852 Ry

     The total energy is F=E-TS. E is the sum of the following terms:
     one-electron contribution =     -11.17462780 Ry
     hartree contribution      =       8.61931830 Ry
     xc contribution           =     -20.16234774 Ry
     ewald contribution        =     -38.51598813 Ry
     one-center paw contrib.   =    -374.94874315 Ry

     convergence has been achieved in   6 iterations

     Forces acting on atoms (cartesian axes, Ry/au):

     atom    1 type  1   force =     0.00000000    0.00000000    0.00000000

     Total force =     0.000000     Total SCF correction =     0.000000


     Computing stress (Cartesian axis) and pressure

          total   stress  (Ry/bohr**3)                   (kbar)     P=       -0.18
  -0.00000121   0.00000000   0.00000000           -0.18        0.00        0.00
   0.00000000  -0.00000121   0.00000000            0.00       -0.18        0.00
   0.00000000   0.00000000  -0.00000121            0.00        0.00       -0.18


     BFGS Geometry Optimization
     Energy error            =      0.0E+00 Ry
     Gradient error          =      0.0E+00 Ry/Bohr

     bfgs converged in   1 scf cycles and   0 bfgs steps
     (criteria: energy <  1.0E-04 Ry, force <  1.0E-03 Ry/Bohr)

     End of BFGS Geometry Optimization

     Final energy             =    -436.1816256425 Ry
Begin final coordinates

ATOMIC_POSITIONS (angstrom)
Ba            0.0000000000        0.0000000000        0.0000000000
End final coordinates



     init_run     :      1.70s CPU      2.01s WALL (       1 calls)
     electrons    :     11.33s CPU     13.07s WALL (       1 calls)
     forces       :      0.44s CPU      0.55s WALL (       1 calls)
     stress       :      2.45s CPU      2.80s WALL (       1 calls)

     Called by init_run:
     wfcinit      :      0.29s CPU      0.33s WALL (       1 calls)
     potinit      :      0.41s CPU      0.45s WALL (       1 calls)
     hinit0       :      0.74s CPU      0.83s WALL (       1 calls)

     Called by electrons:
     c_bands      :      5.83s CPU      6.25s WALL (       7 calls)
     sum_band     :      2.58s CPU      3.34s WALL (       7 calls)
     v_of_rho     :      0.77s CPU      0.84s WALL (       7 calls)
     newd         :      1.28s CPU      1.85s WALL (       7 calls)
     PAW_pot      :      1.16s CPU      1.22s WALL (       7 calls)
     mix_rho      :      0.07s CPU      0.08s WALL (       7 calls)

     Called by c_bands:
     init_us_2    :      0.18s CPU      0.20s WALL (     170 calls)
     init_us_2:cp :      0.18s CPU      0.20s WALL (     170 calls)
     cegterg      :      5.54s CPU      5.94s WALL (      70 calls)

     Called by *egterg:
     cdiaghg      :      0.07s CPU      0.08s WALL (     335 calls)
     h_psi        :      5.12s CPU      5.52s WALL (     355 calls)
     s_psi        :      0.09s CPU      0.09s WALL (     355 calls)
     g_psi        :      0.02s CPU      0.03s WALL (     275 calls)

     Called by h_psi:
     h_psi:calbec :      0.13s CPU      0.14s WALL (     355 calls)
     vloc_psi     :      4.86s CPU      5.24s WALL (     355 calls)
     add_vuspsi   :      0.10s CPU      0.11s WALL (     355 calls)

     General routines
     calbec       :      0.19s CPU      0.20s WALL (     475 calls)
     fft          :      0.75s CPU      0.82s WALL (     115 calls)
     ffts         :      0.12s CPU      0.13s WALL (      14 calls)
     fftw         :      5.11s CPU      5.48s WALL (    4498 calls)
     interpolate  :      0.14s CPU      0.15s WALL (       7 calls)

     Parallel routines

     PWSCF        :     16.34s CPU     18.89s WALL


   This run was terminated on:   6:20:14   6May2024            

=------------------------------------------------------------------------------=
   JOB DONE.
=------------------------------------------------------------------------------=
