
     Program PWSCF v.7.1 starts on  6May2024 at  1:56:23 

     This program is part of the open-source Quantum ESPRESSO suite
     for quantum simulation of materials; please cite
         "P. Giannozzi et al., J. Phys.:Condens. Matter 21 395502 (2009);
         "P. Giannozzi et al., J. Phys.:Condens. Matter 29 465901 (2017);
         "P. Giannozzi et al., J. Chem. Phys. 152 154105 (2020);
          URL http://www.quantum-espresso.org", 
     in publications or presentations arising from this work. More details at
     http://www.quantum-espresso.org/quote

     Parallel version (MPI), running on     2 processors

     MPI processes distributed on     1 nodes
     13937 MiB available memory on the printing compute node when the environment starts

     Waiting for input...
     Reading input from standard input
Warning: card &CELL ignored
Warning: card / ignored

     Current dimensions of program PWSCF are:
     Max number of different atomic species (ntypx) = 10
     Max number of k-points (npk) =  40000
     Max angular momentum in pseudopotentials (lmaxx) =  4
     file Ba.pbe-spn-kjpaw_psl.1.0.0.UPF: wavefunction(s)  5S 6S renormalized
     file Bi.pbe-dn-kjpaw_psl.1.0.0.UPF: wavefunction(s)  6P 5D renormalized
     file O.pbe-n-kjpaw_psl.1.0.0.UPF: wavefunction(s)  2S 2P renormalized
     Message from routine setup:
     using ibrav=0 with symmetry is DISCOURAGED, use correct ibrav instead

     R & G space division:  proc/nbgrp/npool/nimage =       2
     Subspace diagonalization in iterative solution of the eigenvalue problem:
     a serial algorithm will be used


     Parallelization info
     --------------------
     sticks:   dense  smooth     PW     G-vecs:    dense   smooth      PW
     Min        1562     782    218                65744    23290    3536
     Max        1563     783    219                65747    23295    3539
     Sum        3125    1565    437               131491    46585    7075

     Using Slab Decomposition



     bravais-lattice index     =            0
     lattice parameter (alat)  =       8.3715  a.u.
     unit-cell volume          =     586.6888 (a.u.)^3
     number of atoms/cell      =            5
     number of atomic types    =            3
     number of electrons       =        43.00
     number of Kohn-Sham states=           26
     kinetic-energy cutoff     =      70.0000  Ry
     charge density cutoff     =     560.0000  Ry
     scf convergence threshold =      1.0E-07
     mixing beta               =       0.7000
     number of iterations used =            8  plain     mixing
     Exchange-correlation= SLA  PW   PBX  PBC
                           (   1   4   3   4   0   0   0)

     celldm(1)=   8.371487  celldm(2)=   0.000000  celldm(3)=   0.000000
     celldm(4)=   0.000000  celldm(5)=   0.000000  celldm(6)=   0.000000

     crystal axes: (cart. coord. in units of alat)
               a(1) = (   1.000000   0.000000   0.000000 )  
               a(2) = (   0.000000   1.000000   0.000000 )  
               a(3) = (   0.000000   0.000000   1.000000 )  

     reciprocal axes: (cart. coord. in units 2 pi/alat)
               b(1) = (  1.000000  0.000000  0.000000 )  
               b(2) = (  0.000000  1.000000  0.000000 )  
               b(3) = (  0.000000  0.000000  1.000000 )  


     PseudoPot. # 1 for Ba read from file:
     /home/bond/Software/qe-7.1/pseudo/Ba.pbe-spn-kjpaw_psl.1.0.0.UPF
     MD5 check sum: 7cfe25f1fe7574a4710541d5a11d6531
     Pseudo is Projector augmented-wave + core cor, Zval = 10.0
     Generated using &quot;atomic&quot; code by A. Dal Corso  v.6.2.2
     Shape of augmentation charge: PSQ
     Using radial grid of 1251 points,  7 beta functions with: 
                l(1) =   0
                l(2) =   0
                l(3) =   0
                l(4) =   1
                l(5) =   1
                l(6) =   2
                l(7) =   2
     Q(r) pseudized with 0 coefficients 


     PseudoPot. # 2 for Bi read from file:
     /home/bond/Software/qe-7.1/pseudo/Bi.pbe-dn-kjpaw_psl.1.0.0.UPF
     MD5 check sum: 266ded784ae3bc462508ed03f0f37963
     Pseudo is Projector augmented-wave + core cor, Zval = 15.0
     Generated using &quot;atomic&quot; code by A. Dal Corso  v.6.2.2
     Shape of augmentation charge: PSQ
     Using radial grid of 1283 points,  6 beta functions with: 
                l(1) =   0
                l(2) =   0
                l(3) =   1
                l(4) =   1
                l(5) =   2
                l(6) =   2
     Q(r) pseudized with 0 coefficients 


     PseudoPot. # 3 for O  read from file:
     /home/bond/Software/qe-7.1/pseudo/O.pbe-n-kjpaw_psl.1.0.0.UPF
     MD5 check sum: e99d9cef9b487d1ca56f5b95ecd0fd7a
     Pseudo is Projector augmented-wave + core cor, Zval =  6.0
     Generated using &quot;atomic&quot; code by A. Dal Corso  v.6.3
     Shape of augmentation charge: PSQ
     Using radial grid of 1095 points,  4 beta functions with: 
                l(1) =   0
                l(2) =   0
                l(3) =   1
                l(4) =   1
     Q(r) pseudized with 0 coefficients 


     atomic species   valence    mass     pseudopotential
        Ba            10.00   137.32700     Ba( 1.00)
        Bi            15.00   208.98040     Bi( 1.00)
        O              6.00    15.99900     O ( 1.00)

     48 Sym. Ops., with inversion, found



   Cartesian axes

     site n.     atom                  positions (alat units)
         1           Ba  tau(   1) = (   0.5000000   0.5000000   0.5000000  )
         2           Bi  tau(   2) = (   0.0000000   0.0000000   0.0000000  )
         3           O   tau(   3) = (   0.0000000   0.0000000   0.5000000  )
         4           O   tau(   4) = (   0.5000000   0.0000000   0.0000000  )
         5           O   tau(   5) = (   0.0000000   0.5000000   0.0000000  )

     number of k points=    20  Methfessel-Paxton smearing, width (Ry)=  0.0200
                       cart. coord. in units 2pi/alat
        k(    1) = (   0.0000000   0.0000000   0.0000000), wk =   0.0058309
        k(    2) = (   0.0000000   0.0000000   0.1428571), wk =   0.0349854
        k(    3) = (   0.0000000   0.0000000   0.2857143), wk =   0.0349854
        k(    4) = (   0.0000000   0.0000000   0.4285714), wk =   0.0349854
        k(    5) = (   0.0000000   0.1428571   0.1428571), wk =   0.0699708
        k(    6) = (   0.0000000   0.1428571   0.2857143), wk =   0.1399417
        k(    7) = (   0.0000000   0.1428571   0.4285714), wk =   0.1399417
        k(    8) = (   0.0000000   0.2857143   0.2857143), wk =   0.0699708
        k(    9) = (   0.0000000   0.2857143   0.4285714), wk =   0.1399417
        k(   10) = (   0.0000000   0.4285714   0.4285714), wk =   0.0699708
        k(   11) = (   0.1428571   0.1428571   0.1428571), wk =   0.0466472
        k(   12) = (   0.1428571   0.1428571   0.2857143), wk =   0.1399417
        k(   13) = (   0.1428571   0.1428571   0.4285714), wk =   0.1399417
        k(   14) = (   0.1428571   0.2857143   0.2857143), wk =   0.1399417
        k(   15) = (   0.1428571   0.2857143   0.4285714), wk =   0.2798834
        k(   16) = (   0.1428571   0.4285714   0.4285714), wk =   0.1399417
        k(   17) = (   0.2857143   0.2857143   0.2857143), wk =   0.0466472
        k(   18) = (   0.2857143   0.2857143   0.4285714), wk =   0.1399417
        k(   19) = (   0.2857143   0.4285714   0.4285714), wk =   0.1399417
        k(   20) = (   0.4285714   0.4285714   0.4285714), wk =   0.0466472

     Dense  grid:   131491 G-vectors     FFT dimensions: (  64,  64,  64)

     Smooth grid:    46585 G-vectors     FFT dimensions: (  45,  45,  45)

     Estimated max dynamical RAM per process >     295.19 MB

     Estimated total dynamical RAM >     590.37 MB

     Initial potential from superposition of free atoms

     starting charge      42.9822, renormalised to      43.0000
     Starting wfcs are   26 randomized atomic wfcs
     Checking if some PAW data can be deallocated... 

     total cpu time spent up to now is        7.9 secs

     Self-consistent Calculation

     iteration #  1     ecut=    70.00 Ry     beta= 0.70
     Davidson diagonalization with overlap
     ethr =  1.00E-02,  avg # of iterations =  2.4

     total cpu time spent up to now is       18.0 secs

     total energy              =   -1466.64442185 Ry
     estimated scf accuracy    <       1.76111756 Ry

     iteration #  2     ecut=    70.00 Ry     beta= 0.70
     Davidson diagonalization with overlap
     ethr =  4.10E-03,  avg # of iterations =  6.6

     total cpu time spent up to now is       32.1 secs

     total energy              =   -1467.10268710 Ry
     estimated scf accuracy    <       4.04684032 Ry

     iteration #  3     ecut=    70.00 Ry     beta= 0.70
     Davidson diagonalization with overlap
     ethr =  4.10E-03,  avg # of iterations =  2.0

     total cpu time spent up to now is       42.9 secs

     total energy              =   -1467.37335724 Ry
     estimated scf accuracy    <       0.44938183 Ry

     iteration #  4     ecut=    70.00 Ry     beta= 0.70
     Davidson diagonalization with overlap
     ethr =  1.05E-03,  avg # of iterations =  5.2

     total cpu time spent up to now is       57.0 secs

     total energy              =   -1467.78087300 Ry
     estimated scf accuracy    <       0.22739521 Ry

     iteration #  5     ecut=    70.00 Ry     beta= 0.70
     Davidson diagonalization with overlap
     ethr =  5.29E-04,  avg # of iterations =  2.8

     total cpu time spent up to now is       67.0 secs

     total energy              =   -1467.74392033 Ry
     estimated scf accuracy    <       0.10857004 Ry

     iteration #  6     ecut=    70.00 Ry     beta= 0.70
     Davidson diagonalization with overlap
     ethr =  2.52E-04,  avg # of iterations =  5.8

     total cpu time spent up to now is       79.1 secs

     total energy              =   -1467.76124982 Ry
     estimated scf accuracy    <       0.00425611 Ry

     iteration #  7     ecut=    70.00 Ry     beta= 0.70
     Davidson diagonalization with overlap
     c_bands:  2 eigenvalues not converged
     c_bands:  1 eigenvalues not converged
     c_bands:  1 eigenvalues not converged
     c_bands:  1 eigenvalues not converged
     c_bands:  1 eigenvalues not converged
     c_bands:  1 eigenvalues not converged
     c_bands:  1 eigenvalues not converged
     ethr =  9.90E-06,  avg # of iterations = 14.4

     total cpu time spent up to now is       98.5 secs

     total energy              =   -1467.77160510 Ry
     estimated scf accuracy    <       0.00653595 Ry

     iteration #  8     ecut=    70.00 Ry     beta= 0.70
     Davidson diagonalization with overlap
     ethr =  9.90E-06,  avg # of iterations =  1.9

     total cpu time spent up to now is      107.7 secs

     total energy              =   -1467.76928899 Ry
     estimated scf accuracy    <       0.00591543 Ry

     iteration #  9     ecut=    70.00 Ry     beta= 0.70
     Davidson diagonalization with overlap
     ethr =  9.90E-06,  avg # of iterations =  2.0

     total cpu time spent up to now is      118.1 secs

     total energy              =   -1467.76947175 Ry
     estimated scf accuracy    <       0.00081015 Ry

     iteration # 10     ecut=    70.00 Ry     beta= 0.70
     Davidson diagonalization with overlap
     c_bands:  1 eigenvalues not converged
     c_bands:  1 eigenvalues not converged
     ethr =  1.88E-06,  avg # of iterations =  8.0

     total cpu time spent up to now is      132.6 secs

     total energy              =   -1467.77013809 Ry
     estimated scf accuracy    <       0.00049971 Ry

     iteration # 11     ecut=    70.00 Ry     beta= 0.70
     Davidson diagonalization with overlap
     c_bands:  1 eigenvalues not converged
     ethr =  1.16E-06,  avg # of iterations =  3.1

     total cpu time spent up to now is      142.6 secs

     total energy              =   -1467.77018729 Ry
     estimated scf accuracy    <       0.00010138 Ry

     iteration # 12     ecut=    70.00 Ry     beta= 0.70
     Davidson diagonalization with overlap
     ethr =  2.36E-07,  avg # of iterations =  3.1

     total cpu time spent up to now is      153.1 secs

     total energy              =   -1467.77019299 Ry
     estimated scf accuracy    <       0.00010059 Ry

     iteration # 13     ecut=    70.00 Ry     beta= 0.70
     Davidson diagonalization with overlap
     ethr =  2.34E-07,  avg # of iterations =  1.3

     total cpu time spent up to now is      162.6 secs

     total energy              =   -1467.77017366 Ry
     estimated scf accuracy    <       0.00008508 Ry

     iteration # 14     ecut=    70.00 Ry     beta= 0.70
     Davidson diagonalization with overlap
     ethr =  1.98E-07,  avg # of iterations =  2.4

     total cpu time spent up to now is      172.5 secs

     total energy              =   -1467.77017722 Ry
     estimated scf accuracy    <       0.00002443 Ry

     iteration # 15     ecut=    70.00 Ry     beta= 0.70
     Davidson diagonalization with overlap
     ethr =  5.68E-08,  avg # of iterations =  4.8

     total cpu time spent up to now is      185.0 secs

     total energy              =   -1467.77018658 Ry
     estimated scf accuracy    <       0.00000124 Ry

     iteration # 16     ecut=    70.00 Ry     beta= 0.70
     Davidson diagonalization with overlap
     ethr =  2.88E-09,  avg # of iterations =  5.2

     total cpu time spent up to now is      197.9 secs

     total energy              =   -1467.77018730 Ry
     estimated scf accuracy    <       0.00000060 Ry

     iteration # 17     ecut=    70.00 Ry     beta= 0.70
     Davidson diagonalization with overlap
     ethr =  1.40E-09,  avg # of iterations =  1.6

     total cpu time spent up to now is      207.6 secs

     total energy              =   -1467.77018690 Ry
     estimated scf accuracy    <       0.00000055 Ry

     iteration # 18     ecut=    70.00 Ry     beta= 0.70
     Davidson diagonalization with overlap
     ethr =  1.27E-09,  avg # of iterations =  5.0

     total cpu time spent up to now is      222.2 secs

     total energy              =   -1467.77018729 Ry
     estimated scf accuracy    <       0.00000085 Ry

     iteration # 19     ecut=    70.00 Ry     beta= 0.70
     Davidson diagonalization with overlap
     ethr =  1.27E-09,  avg # of iterations =  1.1

     total cpu time spent up to now is      231.9 secs

     total energy              =   -1467.77018726 Ry
     estimated scf accuracy    <       0.00000046 Ry

     iteration # 20     ecut=    70.00 Ry     beta= 0.70
     Davidson diagonalization with overlap
     ethr =  1.07E-09,  avg # of iterations =  1.1

     total cpu time spent up to now is      241.2 secs

     total energy              =   -1467.77018729 Ry
     estimated scf accuracy    <       0.00000027 Ry

     iteration # 21     ecut=    70.00 Ry     beta= 0.70
     Davidson diagonalization with overlap
     ethr =  6.37E-10,  avg # of iterations =  1.1

     total cpu time spent up to now is      250.6 secs

     total energy              =   -1467.77018733 Ry
     estimated scf accuracy    <       0.00000033 Ry

     iteration # 22     ecut=    70.00 Ry     beta= 0.70
     Davidson diagonalization with overlap
     ethr =  6.37E-10,  avg # of iterations =  1.1

     total cpu time spent up to now is      260.1 secs

     total energy              =   -1467.77018734 Ry
     estimated scf accuracy    <       0.00000043 Ry

     iteration # 23     ecut=    70.00 Ry     beta= 0.70
     Davidson diagonalization with overlap
     ethr =  6.37E-10,  avg # of iterations =  1.0

     total cpu time spent up to now is      269.6 secs

     total energy              =   -1467.77018733 Ry
     estimated scf accuracy    <       0.00000048 Ry

     iteration # 24     ecut=    70.00 Ry     beta= 0.70
     Davidson diagonalization with overlap
     ethr =  6.37E-10,  avg # of iterations =  1.1

     total cpu time spent up to now is      279.1 secs

     total energy              =   -1467.77018713 Ry
     estimated scf accuracy    <       0.00000044 Ry

     iteration # 25     ecut=    70.00 Ry     beta= 0.70
     Davidson diagonalization with overlap
     ethr =  6.37E-10,  avg # of iterations =  3.0

     total cpu time spent up to now is      290.3 secs

     End of self-consistent calculation

          k = 0.0000 0.0000 0.0000 (  5743 PWs)   bands (ev):

   -17.3283 -13.1818 -13.1818 -12.8046 -12.8046 -12.8046  -8.8698  -6.5476
    -6.5476  -2.4388  -2.4388  -2.4388   3.2092   4.0444   4.0444   4.0444
     7.6481   7.6481   7.6481   7.8696   7.8696   7.8696  12.9897  12.9897
    14.0293  14.9185

          k = 0.0000 0.0000 0.1429 (  5791 PWs)   bands (ev):

   -17.3238 -13.1816 -13.1525 -12.8062 -12.8062 -12.8046  -8.8208  -6.7135
    -6.5454  -2.4246  -2.4246  -2.4146   2.3112   4.0486   4.0486   5.1730
     7.5429   7.5998   7.5998   7.8277   7.8277   7.8995  13.2374  13.2469
    14.3765  15.0915

          k = 0.0000 0.0000 0.2857 (  5770 PWs)   bands (ev):

   -17.3138 -13.1812 -13.0855 -12.8097 -12.8097 -12.8044  -8.6682  -7.1243
    -6.5404  -2.3924  -2.3924  -2.3697   1.5061   4.0548   4.0548   6.1944
     7.3284   7.5152   7.5152   7.7234   7.7234   8.4478  13.8031  13.8150
    15.3166  15.4591

          k = 0.0000 0.0000 0.4286 (  5798 PWs)   bands (ev):

   -17.3057 -13.1809 -13.0305 -12.8126 -12.8126 -12.8044  -8.4460  -7.5494
    -6.5364  -2.3662  -2.3662  -2.3425   1.1155   4.0559   4.0559   6.3971
     7.1734   7.4893   7.4893   7.6104   7.6104   9.5529  14.1366  14.2798
    15.7153  15.7168

          k = 0.0000 0.1429 0.1429 (  5784 PWs)   bands (ev):

   -17.3195 -13.1671 -13.1372 -12.8077 -12.8062 -12.8061  -8.7712  -6.7837
    -6.6300  -2.4370  -2.4116  -2.3811   1.7124   4.0616   4.5485   5.4845
     7.3610   7.5491   7.6557   7.7800   7.8977   7.9181  13.4293  13.5101
    14.5876  15.1449

          k = 0.0000 0.1429 0.2857 (  5801 PWs)   bands (ev):

   -17.3099 -13.1614 -13.0744 -12.8110 -12.8097 -12.8060  -8.6167  -7.1456
    -6.6567  -2.4249  -2.3818  -2.3541   0.9921   4.0883   4.7781   6.1847
     7.1570   7.4578   7.6095   7.6627   7.8736   8.5532  13.9110  14.0961
    15.1708  15.2519

          k = 0.0000 0.1429 0.4286 (  5794 PWs)   bands (ev):

   -17.3022 -13.1603 -13.0193 -12.8137 -12.8125 -12.8059  -8.3890  -7.5601
    -6.6555  -2.3958  -2.3602  -2.3577   0.6205   4.1068   4.8245   6.3660
     7.0913   7.4304   7.5341   7.5473   7.8032   9.6696  14.2700  14.4495
    15.3536  15.4626

          k = 0.0000 0.2857 0.2857 (  5806 PWs)   bands (ev):

   -17.3013 -13.1348 -13.0302 -12.8139 -12.8096 -12.8093  -8.4577  -7.2756
    -6.8821  -2.4517  -2.3692  -2.3578   0.2971   4.1650   5.8011   6.2134
     6.9759   7.3438   7.5187   7.6728   8.0891   9.1079  14.1992  14.7863
    15.1622  15.5799

          k = 0.0000 0.2857 0.4286 (  5799 PWs)   bands (ev):

   -17.2943 -13.1259 -12.9806 -12.8161 -12.8122 -12.8092  -8.2156  -7.5877
    -6.9724  -2.4473  -2.4114  -2.3383  -0.0783   4.2279   6.1412   6.2634
     7.0951   7.2932   7.3684   7.6431   8.1194  10.1126  14.4159  14.8054
    15.0588  15.6890

          k = 0.0000 0.4286 0.4286 (  5802 PWs)   bands (ev):

   -17.2880 -13.1097 -12.9363 -12.8181 -12.8119 -12.8119  -7.9409  -7.6435
    -7.3356  -2.4757  -2.4612  -2.3227  -0.4663   4.3331   6.1352   7.0408
     7.1906   7.1931   7.2241   7.6643   8.3171  10.9171  14.3919  14.4293
    14.9048  15.0685

          k = 0.1429 0.1429 0.1429 (  5794 PWs)   bands (ev):

   -17.3154 -13.1370 -13.1370 -12.8077 -12.8077 -12.8076  -8.7215  -6.7790
    -6.7790  -2.4332  -2.4332  -2.3467   1.2153   4.5598   4.5598   5.6837
     7.3379   7.3379   7.7834   7.8802   7.8802   7.9125  13.6559  13.6559
    14.6846  15.4567

          k = 0.1429 0.1429 0.2857 (  5794 PWs)   bands (ev):

   -17.3062 -13.1366 -13.0681 -12.8113 -12.8107 -12.8075  -8.5667  -7.1566
    -6.7682  -2.4324  -2.4248  -2.3266   0.5413   4.5826   4.9675   6.1799
     7.1232   7.2777   7.7412   7.8078   7.8690   8.6302  14.0685  14.1728
    15.0810  15.3684

          k = 0.1429 0.1429 0.4286 (  5786 PWs)   bands (ev):

   -17.2987 -13.1363 -13.0113 -12.8141 -12.8132 -12.8074  -8.3358  -7.5662
    -6.7595  -2.4181  -2.4057  -2.3445   0.1784   4.5980   5.0894   6.3660
     7.0165   7.3286   7.6428   7.6455   7.8633   9.7661  14.2436  14.5485
    15.2638  15.5807

          k = 0.1429 0.2857 0.2857 (  5804 PWs)   bands (ev):

   -17.2978 -13.1030 -13.0300 -12.8141 -12.8110 -12.8108  -8.4119  -7.2667
    -6.9803  -2.4676  -2.4392  -2.3320  -0.1230   4.7938   5.8327   6.2298
     6.9862   7.1819   7.7081   7.8494   8.0769   9.1549  14.2672  14.5211
    15.0334  15.2441

          k = 0.1429 0.2857 0.4286 (  5800 PWs)   bands (ev):

   -17.2910 -13.0948 -12.9790 -12.8165 -12.8135 -12.8109  -8.1738  -7.5835
    -7.0404  -2.4732  -2.4538  -2.3598  -0.4966   4.8685   6.2071   6.3418
     6.9839   7.2183   7.6047   7.7766   8.1306  10.1708  14.0967  14.5700
    15.0583  15.1666

          k = 0.1429 0.4286 0.4286 (  5816 PWs)   bands (ev):

   -17.2848 -13.0765 -12.9363 -12.8186 -12.8137 -12.8136  -7.9167  -7.6322
    -7.3661  -2.5047  -2.4953  -2.3774  -0.8880   4.9969   6.2710   6.9636
     7.0016   7.2964   7.5659   7.7672   8.3263  10.9674  13.9151  13.9662
    14.5267  15.2403

          k = 0.2857 0.2857 0.2857 (  5815 PWs)   bands (ev):

   -17.2899 -13.0297 -13.0297 -12.8148 -12.8148 -12.8134  -8.2706  -7.2465
    -7.2465  -2.5035  -2.5035  -2.3673  -0.7915   5.9047   5.9047   6.3183
     7.0045   7.0045   7.9960   7.9960   8.1047   9.5390  14.1396  14.1397
    14.6569  15.4779

          k = 0.2857 0.2857 0.4286 (  5797 PWs)   bands (ev):

   -17.2836 -13.0294 -12.9690 -12.8177 -12.8163 -12.8145  -8.0472  -7.5767
    -7.2301  -2.5325  -2.5243  -2.4273  -1.1875   5.9637   6.4358   6.5488
     6.9206   7.1293   7.9369   7.9727   8.2009  10.4580  13.5140  13.9344
    14.4023  15.4888

          k = 0.2857 0.4286 0.4286 (  5811 PWs)   bands (ev):

   -17.2776 -12.9998 -12.9361 -12.8198 -12.8175 -12.8173  -7.8452  -7.6066
    -7.4552  -2.5697  -2.5696  -2.4971  -1.6119   6.3286   6.5731   6.9150
     6.9285   7.3720   8.0089   8.0538   8.3482  11.1569  13.1009  13.2009
    13.8295  15.7891

          k = 0.4286 0.4286 0.4286 (  5818 PWs)   bands (ev):

   -17.2718 -12.9360 -12.9360 -12.8207 -12.8207 -12.8202  -7.7327  -7.5857
    -7.5857  -2.6218  -2.6218  -2.5945  -2.0717   6.8085   6.9098   6.9098
     7.3950   7.3950   8.3046   8.3046   8.3823  11.6117  12.5484  12.5484
    13.1638  16.4646

     the Fermi energy is     9.8647 ev

!    total energy              =   -1467.77018716 Ry
     total all-electron energy =    -59784.861970 Ry
     estimated scf accuracy    <       0.00000003 Ry
     smearing contrib. (-TS)   =       0.00034348 Ry
     internal energy E=F+TS    =   -1467.77053064 Ry

     The total energy is F=E-TS. E is the sum of the following terms:
     one-electron contribution =     -84.12521202 Ry
     hartree contribution      =      73.70045303 Ry
     xc contribution           =     -75.27511657 Ry
     ewald contribution        =    -221.76066282 Ry
     one-center paw contrib.   =   -1160.30999227 Ry

     convergence has been achieved in  25 iterations

     Forces acting on atoms (cartesian axes, Ry/au):

     atom    1 type  1   force =     0.00000000    0.00000000    0.00000000
     atom    2 type  2   force =     0.00000000    0.00000000    0.00000000
     atom    3 type  3   force =     0.00000000    0.00000000    0.00000000
     atom    4 type  3   force =     0.00000000    0.00000000    0.00000000
     atom    5 type  3   force =     0.00000000    0.00000000    0.00000000

     Total force =     0.000000     Total SCF correction =     0.000000


     Computing stress (Cartesian axis) and pressure

          total   stress  (Ry/bohr**3)                   (kbar)     P=       -6.74
  -0.00004582   0.00000000   0.00000000           -6.74        0.00        0.00
   0.00000000  -0.00004582   0.00000000            0.00       -6.74        0.00
   0.00000000   0.00000000  -0.00004582            0.00        0.00       -6.74


     init_run     :      5.23s CPU      6.86s WALL (       1 calls)
     electrons    :    221.78s CPU    282.40s WALL (       1 calls)
     forces       :      1.32s CPU      2.31s WALL (       1 calls)
     stress       :      7.98s CPU     12.85s WALL (       1 calls)

     Called by init_run:
     wfcinit      :      2.50s CPU      2.58s WALL (       1 calls)
     potinit      :      0.81s CPU      1.29s WALL (       1 calls)
     hinit0       :      1.33s CPU      1.99s WALL (       1 calls)

     Called by electrons:
     c_bands      :    148.48s CPU    181.66s WALL (      25 calls)
     sum_band     :     42.41s CPU     56.23s WALL (      25 calls)
     v_of_rho     :      3.32s CPU      4.25s WALL (      26 calls)
     newd         :     13.84s CPU     22.79s WALL (      26 calls)
     PAW_pot      :     13.80s CPU     17.97s WALL (      26 calls)
     mix_rho      :      0.60s CPU      0.74s WALL (      25 calls)

     Called by c_bands:
     init_us_2    :      2.71s CPU      3.35s WALL (    1060 calls)
     init_us_2:cp :      2.70s CPU      3.34s WALL (    1060 calls)
     cegterg      :    141.31s CPU    172.91s WALL (     500 calls)

     Called by *egterg:
     cdiaghg      :      2.78s CPU      3.53s WALL (    2239 calls)
     h_psi        :    114.56s CPU    139.82s WALL (    2259 calls)
     s_psi        :      4.17s CPU      5.32s WALL (    2259 calls)
     g_psi        :      0.50s CPU      0.61s WALL (    1739 calls)

     Called by h_psi:
     h_psi:calbec :      5.92s CPU      7.30s WALL (    2259 calls)
     vloc_psi     :    103.65s CPU    126.30s WALL (    2259 calls)
     add_vuspsi   :      4.51s CPU      5.62s WALL (    2259 calls)

     General routines
     calbec       :      8.28s CPU     10.18s WALL (    2859 calls)
     fft          :      2.55s CPU      3.24s WALL (     361 calls)
     ffts         :      0.21s CPU      0.27s WALL (      51 calls)
     fftw         :    113.99s CPU    138.42s WALL (   79766 calls)
     interpolate  :      0.33s CPU      0.40s WALL (      26 calls)

     Parallel routines

     PWSCF        :   3m57.26s CPU   5m 5.44s WALL


   This run was terminated on:   2: 1:29   6May2024            

=------------------------------------------------------------------------------=
   JOB DONE.
=------------------------------------------------------------------------------=
