
     Program PWSCF v.7.1 starts on  6May2024 at  2:53: 8 

     This program is part of the open-source Quantum ESPRESSO suite
     for quantum simulation of materials; please cite
         "P. Giannozzi et al., J. Phys.:Condens. Matter 21 395502 (2009);
         "P. Giannozzi et al., J. Phys.:Condens. Matter 29 465901 (2017);
         "P. Giannozzi et al., J. Chem. Phys. 152 154105 (2020);
          URL http://www.quantum-espresso.org", 
     in publications or presentations arising from this work. More details at
     http://www.quantum-espresso.org/quote

     Parallel version (MPI), running on     2 processors

     MPI processes distributed on     1 nodes
     13800 MiB available memory on the printing compute node when the environment starts

     Waiting for input...
     Reading input from standard input
Warning: card &CELL ignored
Warning: card / ignored

     Current dimensions of program PWSCF are:
     Max number of different atomic species (ntypx) = 10
     Max number of k-points (npk) =  40000
     Max angular momentum in pseudopotentials (lmaxx) =  4
     file Ba.pbe-spn-kjpaw_psl.1.0.0.UPF: wavefunction(s)  5S 6S renormalized
     file Bi.pbe-dn-kjpaw_psl.1.0.0.UPF: wavefunction(s)  6P 5D renormalized
     file O.pbe-n-kjpaw_psl.1.0.0.UPF: wavefunction(s)  2S 2P renormalized
     Message from routine setup:
     using ibrav=0 with symmetry is DISCOURAGED, use correct ibrav instead

     R & G space division:  proc/nbgrp/npool/nimage =       2
     Subspace diagonalization in iterative solution of the eigenvalue problem:
     a serial algorithm will be used


     Parallelization info
     --------------------
     sticks:   dense  smooth     PW     G-vecs:    dense   smooth      PW
     Min        1562     782    218                65312    23148    3465
     Max        1563     783    219                65315    23149    3466
     Sum        3125    1565    437               130627    46297    6931

     Using Slab Decomposition



     bravais-lattice index     =            0
     lattice parameter (alat)  =       8.3526  a.u.
     unit-cell volume          =     582.7247 (a.u.)^3
     number of atoms/cell      =            5
     number of atomic types    =            3
     number of electrons       =        43.00
     number of Kohn-Sham states=           26
     kinetic-energy cutoff     =      70.0000  Ry
     charge density cutoff     =     560.0000  Ry
     scf convergence threshold =      1.0E-07
     mixing beta               =       0.7000
     number of iterations used =            8  plain     mixing
     Exchange-correlation= SLA  PW   PBX  PBC
                           (   1   4   3   4   0   0   0)

     celldm(1)=   8.352589  celldm(2)=   0.000000  celldm(3)=   0.000000
     celldm(4)=   0.000000  celldm(5)=   0.000000  celldm(6)=   0.000000

     crystal axes: (cart. coord. in units of alat)
               a(1) = (   1.000000   0.000000   0.000000 )  
               a(2) = (   0.000000   1.000000   0.000000 )  
               a(3) = (   0.000000   0.000000   1.000000 )  

     reciprocal axes: (cart. coord. in units 2 pi/alat)
               b(1) = (  1.000000  0.000000  0.000000 )  
               b(2) = (  0.000000  1.000000  0.000000 )  
               b(3) = (  0.000000  0.000000  1.000000 )  


     PseudoPot. # 1 for Ba read from file:
     /home/bond/Software/qe-7.1/pseudo/Ba.pbe-spn-kjpaw_psl.1.0.0.UPF
     MD5 check sum: 7cfe25f1fe7574a4710541d5a11d6531
     Pseudo is Projector augmented-wave + core cor, Zval = 10.0
     Generated using &quot;atomic&quot; code by A. Dal Corso  v.6.2.2
     Shape of augmentation charge: PSQ
     Using radial grid of 1251 points,  7 beta functions with: 
                l(1) =   0
                l(2) =   0
                l(3) =   0
                l(4) =   1
                l(5) =   1
                l(6) =   2
                l(7) =   2
     Q(r) pseudized with 0 coefficients 


     PseudoPot. # 2 for Bi read from file:
     /home/bond/Software/qe-7.1/pseudo/Bi.pbe-dn-kjpaw_psl.1.0.0.UPF
     MD5 check sum: 266ded784ae3bc462508ed03f0f37963
     Pseudo is Projector augmented-wave + core cor, Zval = 15.0
     Generated using &quot;atomic&quot; code by A. Dal Corso  v.6.2.2
     Shape of augmentation charge: PSQ
     Using radial grid of 1283 points,  6 beta functions with: 
                l(1) =   0
                l(2) =   0
                l(3) =   1
                l(4) =   1
                l(5) =   2
                l(6) =   2
     Q(r) pseudized with 0 coefficients 


     PseudoPot. # 3 for O  read from file:
     /home/bond/Software/qe-7.1/pseudo/O.pbe-n-kjpaw_psl.1.0.0.UPF
     MD5 check sum: e99d9cef9b487d1ca56f5b95ecd0fd7a
     Pseudo is Projector augmented-wave + core cor, Zval =  6.0
     Generated using &quot;atomic&quot; code by A. Dal Corso  v.6.3
     Shape of augmentation charge: PSQ
     Using radial grid of 1095 points,  4 beta functions with: 
                l(1) =   0
                l(2) =   0
                l(3) =   1
                l(4) =   1
     Q(r) pseudized with 0 coefficients 


     atomic species   valence    mass     pseudopotential
        Ba            10.00   137.32700     Ba( 1.00)
        Bi            15.00   208.98040     Bi( 1.00)
        O              6.00    15.99900     O ( 1.00)

     48 Sym. Ops., with inversion, found



   Cartesian axes

     site n.     atom                  positions (alat units)
         1           Ba  tau(   1) = (   0.5000000   0.5000000   0.5000000  )
         2           Bi  tau(   2) = (   0.0000000   0.0000000   0.0000000  )
         3           O   tau(   3) = (   0.0000000   0.0000000   0.5000000  )
         4           O   tau(   4) = (   0.5000000   0.0000000   0.0000000  )
         5           O   tau(   5) = (   0.0000000   0.5000000   0.0000000  )

     number of k points=    10  Methfessel-Paxton smearing, width (Ry)=  0.0200
                       cart. coord. in units 2pi/alat
        k(    1) = (   0.0000000   0.0000000   0.0000000), wk =   0.0160000
        k(    2) = (   0.0000000   0.0000000   0.2000000), wk =   0.0960000
        k(    3) = (   0.0000000   0.0000000   0.4000000), wk =   0.0960000
        k(    4) = (   0.0000000   0.2000000   0.2000000), wk =   0.1920000
        k(    5) = (   0.0000000   0.2000000   0.4000000), wk =   0.3840000
        k(    6) = (   0.0000000   0.4000000   0.4000000), wk =   0.1920000
        k(    7) = (   0.2000000   0.2000000   0.2000000), wk =   0.1280000
        k(    8) = (   0.2000000   0.2000000   0.4000000), wk =   0.3840000
        k(    9) = (   0.2000000   0.4000000   0.4000000), wk =   0.3840000
        k(   10) = (   0.4000000   0.4000000   0.4000000), wk =   0.1280000

     Dense  grid:   130627 G-vectors     FFT dimensions: (  64,  64,  64)

     Smooth grid:    46297 G-vectors     FFT dimensions: (  45,  45,  45)

     Estimated max dynamical RAM per process >     281.93 MB

     Estimated total dynamical RAM >     563.86 MB

     Initial potential from superposition of free atoms

     starting charge      42.9822, renormalised to      43.0000
     Starting wfcs are   26 randomized atomic wfcs
     Checking if some PAW data can be deallocated... 

     total cpu time spent up to now is        5.2 secs

     Self-consistent Calculation

     iteration #  1     ecut=    70.00 Ry     beta= 0.70
     Davidson diagonalization with overlap
     ethr =  1.00E-02,  avg # of iterations =  2.7

     total cpu time spent up to now is       10.1 secs

     total energy              =   -1466.63937718 Ry
     estimated scf accuracy    <       1.76203221 Ry

     iteration #  2     ecut=    70.00 Ry     beta= 0.70
     Davidson diagonalization with overlap
     ethr =  4.10E-03,  avg # of iterations =  6.8

     total cpu time spent up to now is       16.2 secs

     total energy              =   -1467.08055223 Ry
     estimated scf accuracy    <       4.09554349 Ry

     iteration #  3     ecut=    70.00 Ry     beta= 0.70
     Davidson diagonalization with overlap
     ethr =  4.10E-03,  avg # of iterations =  2.2

     total cpu time spent up to now is       21.1 secs

     total energy              =   -1467.34744635 Ry
     estimated scf accuracy    <       0.45025488 Ry

     iteration #  4     ecut=    70.00 Ry     beta= 0.70
     Davidson diagonalization with overlap
     ethr =  1.05E-03,  avg # of iterations =  5.7

     total cpu time spent up to now is       27.0 secs

     total energy              =   -1467.77386980 Ry
     estimated scf accuracy    <       0.27745020 Ry

     iteration #  5     ecut=    70.00 Ry     beta= 0.70
     Davidson diagonalization with overlap
     ethr =  6.45E-04,  avg # of iterations =  1.7

     total cpu time spent up to now is       31.4 secs

     total energy              =   -1467.73352964 Ry
     estimated scf accuracy    <       0.11739648 Ry

     iteration #  6     ecut=    70.00 Ry     beta= 0.70
     Davidson diagonalization with overlap
     ethr =  2.73E-04,  avg # of iterations =  7.9

     total cpu time spent up to now is       37.1 secs

     total energy              =   -1467.76013305 Ry
     estimated scf accuracy    <       0.00074332 Ry

     iteration #  7     ecut=    70.00 Ry     beta= 0.70
     Davidson diagonalization with overlap
     c_bands:  1 eigenvalues not converged
     c_bands:  2 eigenvalues not converged
     c_bands:  1 eigenvalues not converged
     c_bands:  1 eigenvalues not converged
     ethr =  1.73E-06,  avg # of iterations = 17.1

     total cpu time spent up to now is       47.3 secs

     total energy              =   -1467.76747560 Ry
     estimated scf accuracy    <       0.01537227 Ry

     iteration #  8     ecut=    70.00 Ry     beta= 0.70
     Davidson diagonalization with overlap
     ethr =  1.73E-06,  avg # of iterations =  6.2

     total cpu time spent up to now is       53.3 secs

     total energy              =   -1467.76561362 Ry
     estimated scf accuracy    <       0.00555045 Ry

     iteration #  9     ecut=    70.00 Ry     beta= 0.70
     Davidson diagonalization with overlap
     ethr =  1.73E-06,  avg # of iterations =  5.6

     total cpu time spent up to now is       59.7 secs

     total energy              =   -1467.76668603 Ry
     estimated scf accuracy    <       0.00000676 Ry

     iteration # 10     ecut=    70.00 Ry     beta= 0.70
     Davidson diagonalization with overlap
     ethr =  1.57E-08,  avg # of iterations =  8.1

     total cpu time spent up to now is       66.3 secs

     total energy              =   -1467.76667650 Ry
     estimated scf accuracy    <       0.00005523 Ry

     iteration # 11     ecut=    70.00 Ry     beta= 0.70
     Davidson diagonalization with overlap
     ethr =  1.57E-08,  avg # of iterations =  5.7

     total cpu time spent up to now is       72.4 secs

     total energy              =   -1467.76669431 Ry
     estimated scf accuracy    <       0.00000411 Ry

     iteration # 12     ecut=    70.00 Ry     beta= 0.70
     Davidson diagonalization with overlap
     ethr =  9.56E-09,  avg # of iterations =  4.0

     total cpu time spent up to now is       77.5 secs

     total energy              =   -1467.76668980 Ry
     estimated scf accuracy    <       0.00001302 Ry

     iteration # 13     ecut=    70.00 Ry     beta= 0.70
     Davidson diagonalization with overlap
     ethr =  9.56E-09,  avg # of iterations =  4.4

     total cpu time spent up to now is       82.9 secs

     total energy              =   -1467.76669122 Ry
     estimated scf accuracy    <       0.00000107 Ry

     iteration # 14     ecut=    70.00 Ry     beta= 0.70
     Davidson diagonalization with overlap
     ethr =  2.48E-09,  avg # of iterations =  4.9

     total cpu time spent up to now is       88.0 secs

     total energy              =   -1467.76669143 Ry
     estimated scf accuracy    <       0.00000033 Ry

     iteration # 15     ecut=    70.00 Ry     beta= 0.70
     Davidson diagonalization with overlap
     ethr =  7.75E-10,  avg # of iterations =  2.5

     total cpu time spent up to now is       92.6 secs

     total energy              =   -1467.76669139 Ry
     estimated scf accuracy    <       0.00000020 Ry

     iteration # 16     ecut=    70.00 Ry     beta= 0.70
     Davidson diagonalization with overlap
     ethr =  4.63E-10,  avg # of iterations =  3.9

     total cpu time spent up to now is       97.6 secs

     End of self-consistent calculation

          k = 0.0000 0.0000 0.0000 (  5743 PWs)   bands (ev):

   -17.2187 -13.0904 -13.0904 -12.7013 -12.7013 -12.7013  -8.8124  -6.4502
    -6.4502  -2.3323  -2.3323  -2.3323   3.3566   4.1124   4.1124   4.1124
     7.7275   7.7275   7.7275   7.9568   7.9568   7.9568  13.0831  13.0831
    14.1571  15.0258

          k = 0.0000 0.0000 0.2000 (  5754 PWs)   bands (ev):

   -17.2102 -13.0901 -13.0349 -12.7043 -12.7043 -12.7012  -8.7146  -6.7685
    -6.4460  -2.3053  -2.3053  -2.2878   2.0536   4.1186   4.1186   5.7847
     7.5368   7.6429   7.6429   7.8772   7.8772   8.1041  13.5440  13.5609
    14.8279  15.3449

          k = 0.0000 0.0000 0.4000 (  5762 PWs)   bands (ev):

   -17.1963 -13.0895 -12.9427 -12.7092 -12.7092 -12.7010  -8.4265  -7.4039
    -6.4393  -2.2607  -2.2607  -2.2350   1.2727   4.1212   4.1212   6.4659
     7.2671   7.5676   7.5676   7.7133   7.7133   9.4953  14.2385  14.3207
    15.2927  15.8081

          k = 0.0000 0.2000 0.2000 (  5760 PWs)   bands (ev):

   -17.2024 -13.0628 -13.0048 -12.7070 -12.7043 -12.7041  -8.6143  -6.8846
    -6.6153  -2.3326  -2.2821  -2.2482   1.1812   4.1557   5.0681   6.0245
     7.2457   7.5483   7.7413   7.7782   8.0612   8.2980  13.8402  14.0704
    15.0354  15.4294

          k = 0.0000 0.2000 0.4000 (  5779 PWs)   bands (ev):

   -17.1896 -13.0535 -12.9186 -12.7113 -12.7089 -12.7040  -8.3165  -7.4259
    -6.6705  -2.3146  -2.2619  -2.2440   0.4601   4.2124   5.4289   6.4000
     7.1397   7.4559   7.5782   7.6804   8.0260   9.7419  14.4467  14.7171
    15.4111  15.5800

          k = 0.0000 0.4000 0.4000 (  5746 PWs)   bands (ev):

   -17.1787 -13.0198 -12.8511 -12.7146 -12.7085 -12.7085  -7.9892  -7.5212
    -7.1478  -2.3649  -2.3370  -2.2166  -0.2803   4.3727   6.2348   6.9384
     7.2081   7.2892   7.3476   7.7668   8.3609  10.7426  14.5994  14.7857
    15.1372  15.2827

          k = 0.2000 0.2000 0.2000 (  5749 PWs)   bands (ev):

   -17.1950 -13.0045 -13.0045 -12.7071 -12.7071 -12.7065  -8.5156  -6.8723
    -6.8723  -2.3403  -2.3403  -2.2067   0.4421   5.1002   5.1002   6.1328
     7.2449   7.2449   7.9821   7.9934   7.9934   8.4809  14.1893  14.1893
    15.0028  15.4573

          k = 0.2000 0.2000 0.4000 (  5763 PWs)   bands (ev):

   -17.1831 -13.0040 -12.9069 -12.7122 -12.7107 -12.7069  -8.2194  -7.4309
    -6.8521  -2.3533  -2.3454  -2.2409  -0.2602   5.1481   5.7641   6.4356
     7.0494   7.2817   7.8477   7.8581   8.0913   9.9183  14.2841  14.6617
    15.2202  15.3312

          k = 0.2000 0.4000 0.4000 (  5769 PWs)   bands (ev):

   -17.1725 -12.9570 -12.8510 -12.7156 -12.7118 -12.7115  -7.9288  -7.5005
    -7.2344  -2.4166  -2.4073  -2.3018  -1.0057   5.5489   6.4553   6.9465
     7.0301   7.2787   7.8303   7.9871   8.3763  10.8400  13.8891  13.9716
    14.5246  15.4892

          k = 0.4000 0.4000 0.4000 (  5773 PWs)   bands (ev):

   -17.1626 -12.8508 -12.8508 -12.7171 -12.7171 -12.7162  -7.7497  -7.4663
    -7.4663  -2.5001  -2.5001  -2.4494  -1.8302   6.8011   6.9831   6.9831
     7.2737   7.2737   8.3172   8.3172   8.4308  11.3905  12.9672  12.9672
    13.5815  16.4247

     the Fermi energy is     9.8730 ev

!    total energy              =   -1467.76669144 Ry
     total all-electron energy =    -59784.858474 Ry
     estimated scf accuracy    <          3.9E-09 Ry
     smearing contrib. (-TS)   =      -0.00134264 Ry
     internal energy E=F+TS    =   -1467.76534880 Ry

     The total energy is F=E-TS. E is the sum of the following terms:
     one-electron contribution =     -83.38950492 Ry
     hartree contribution      =      73.49579835 Ry
     xc contribution           =     -75.29784616 Ry
     ewald contribution        =    -222.26238377 Ry
     one-center paw contrib.   =   -1160.31141231 Ry

     convergence has been achieved in  16 iterations

     Forces acting on atoms (cartesian axes, Ry/au):

     atom    1 type  1   force =     0.00000000    0.00000000    0.00000000
     atom    2 type  2   force =     0.00000000    0.00000000    0.00000000
     atom    3 type  3   force =     0.00000000    0.00000000    0.00000000
     atom    4 type  3   force =     0.00000000    0.00000000    0.00000000
     atom    5 type  3   force =     0.00000000    0.00000000    0.00000000

     Total force =     0.000000     Total SCF correction =     0.000000


     Computing stress (Cartesian axis) and pressure

          total   stress  (Ry/bohr**3)                   (kbar)     P=        2.30
   0.00001566   0.00000000   0.00000000            2.30        0.00        0.00
   0.00000000   0.00001566   0.00000000            0.00        2.30        0.00
   0.00000000   0.00000000   0.00001566            0.00        0.00        2.30


     init_run     :      3.69s CPU      4.21s WALL (       1 calls)
     electrons    :     83.32s CPU     92.39s WALL (       1 calls)
     forces       :      1.27s CPU      1.44s WALL (       1 calls)
     stress       :      7.22s CPU      8.03s WALL (       1 calls)

     Called by init_run:
     wfcinit      :      0.86s CPU      0.97s WALL (       1 calls)
     potinit      :      0.81s CPU      0.91s WALL (       1 calls)
     hinit0       :      1.44s CPU      1.51s WALL (       1 calls)

     Called by electrons:
     c_bands      :     49.59s CPU     51.85s WALL (      16 calls)
     sum_band     :     15.56s CPU     19.07s WALL (      16 calls)
     v_of_rho     :      1.87s CPU      1.96s WALL (      17 calls)
     newd         :      7.97s CPU     11.09s WALL (      17 calls)
     PAW_pot      :      8.91s CPU      9.26s WALL (      17 calls)
     mix_rho      :      0.30s CPU      0.32s WALL (      16 calls)

     Called by c_bands:
     init_us_2    :      0.89s CPU      0.93s WALL (     350 calls)
     init_us_2:cp :      0.88s CPU      0.93s WALL (     350 calls)
     cegterg      :     47.60s CPU     49.76s WALL (     160 calls)

     Called by *egterg:
     cdiaghg      :      1.35s CPU      1.40s WALL (    1054 calls)
     h_psi        :     37.52s CPU     39.29s WALL (    1064 calls)
     s_psi        :      1.71s CPU      1.81s WALL (    1064 calls)
     g_psi        :      0.22s CPU      0.23s WALL (     894 calls)

     Called by h_psi:
     h_psi:calbec :      2.03s CPU      2.13s WALL (    1064 calls)
     vloc_psi     :     33.42s CPU     35.00s WALL (    1064 calls)
     add_vuspsi   :      1.87s CPU      1.96s WALL (    1064 calls)

     General routines
     calbec       :      2.75s CPU      2.87s WALL (    1274 calls)
     fft          :      1.31s CPU      1.39s WALL (     244 calls)
     ffts         :      0.15s CPU      0.16s WALL (      33 calls)
     fftw         :     34.87s CPU     36.44s WALL (   30952 calls)
     interpolate  :      0.21s CPU      0.23s WALL (      17 calls)

     Parallel routines

     PWSCF        :   1m36.41s CPU   1m47.03s WALL


   This run was terminated on:   2:54:55   6May2024            

=------------------------------------------------------------------------------=
   JOB DONE.
=------------------------------------------------------------------------------=
