
     Program PWSCF v.7.1 starts on  6May2024 at  6:19:36 

     This program is part of the open-source Quantum ESPRESSO suite
     for quantum simulation of materials; please cite
         "P. Giannozzi et al., J. Phys.:Condens. Matter 21 395502 (2009);
         "P. Giannozzi et al., J. Phys.:Condens. Matter 29 465901 (2017);
         "P. Giannozzi et al., J. Chem. Phys. 152 154105 (2020);
          URL http://www.quantum-espresso.org", 
     in publications or presentations arising from this work. More details at
     http://www.quantum-espresso.org/quote

     Parallel version (MPI), running on     2 processors

     MPI processes distributed on     1 nodes
     13491 MiB available memory on the printing compute node when the environment starts

     Waiting for input...
     Reading input from standard input
Warning: card &CELL ignored
Warning: card / ignored

     Current dimensions of program PWSCF are:
     Max number of different atomic species (ntypx) = 10
     Max number of k-points (npk) =  40000
     Max angular momentum in pseudopotentials (lmaxx) =  4
     file Ba.pbe-spn-kjpaw_psl.1.0.0.UPF: wavefunction(s)  5S 6S renormalized
     Message from routine setup:
     using ibrav=0 with symmetry is DISCOURAGED, use correct ibrav instead

     R & G space division:  proc/nbgrp/npool/nimage =       2
     Subspace diagonalization in iterative solution of the eigenvalue problem:
     a serial algorithm will be used


     Parallelization info
     --------------------
     sticks:   dense  smooth     PW     G-vecs:    dense   smooth      PW
     Min        1398     701    199                46860    16654    2508
     Max        1399     702    200                46863    16655    2509
     Sum        2797    1403    399                93723    33309    5017

     Using Slab Decomposition



     bravais-lattice index     =            0
     lattice parameter (alat)  =       8.1664  a.u.
     unit-cell volume          =     419.2453 (a.u.)^3
     number of atoms/cell      =            1
     number of atomic types    =            1
     number of electrons       =        10.00
     number of Kohn-Sham states=            9
     kinetic-energy cutoff     =      70.0000  Ry
     charge density cutoff     =     560.0000  Ry
     scf convergence threshold =      1.0E-07
     mixing beta               =       0.7000
     number of iterations used =            8  plain     mixing
     energy convergence thresh.=      1.0E-04
     force convergence thresh. =      1.0E-03
     Exchange-correlation= SLA  PW   PBX  PBC
                           (   1   4   3   4   0   0   0)
     nstep                     =           50


     celldm(1)=   8.166389  celldm(2)=   0.000000  celldm(3)=   0.000000
     celldm(4)=   0.000000  celldm(5)=   0.000000  celldm(6)=   0.000000

     crystal axes: (cart. coord. in units of alat)
               a(1) = (  -0.577350   0.577350   0.577350 )  
               a(2) = (   0.577350  -0.577350   0.577350 )  
               a(3) = (   0.577350   0.577350  -0.577350 )  

     reciprocal axes: (cart. coord. in units 2 pi/alat)
               b(1) = (  0.000000  0.866025  0.866025 )  
               b(2) = (  0.866025  0.000000  0.866025 )  
               b(3) = (  0.866025  0.866025  0.000000 )  


     PseudoPot. # 1 for Ba read from file:
     /home/bond/Software/qe-7.1/pseudo/Ba.pbe-spn-kjpaw_psl.1.0.0.UPF
     MD5 check sum: 7cfe25f1fe7574a4710541d5a11d6531
     Pseudo is Projector augmented-wave + core cor, Zval = 10.0
     Generated using &quot;atomic&quot; code by A. Dal Corso  v.6.2.2
     Shape of augmentation charge: PSQ
     Using radial grid of 1251 points,  7 beta functions with: 
                l(1) =   0
                l(2) =   0
                l(3) =   0
                l(4) =   1
                l(5) =   1
                l(6) =   2
                l(7) =   2
     Q(r) pseudized with 0 coefficients 


     atomic species   valence    mass     pseudopotential
        Ba            10.00   137.32700     Ba( 1.00)

     48 Sym. Ops., with inversion, found



   Cartesian axes

     site n.     atom                  positions (alat units)
         1           Ba  tau(   1) = (   0.0000000   0.0000000   0.0000000  )

     number of k points=    10  Methfessel-Paxton smearing, width (Ry)=  0.0200
                       cart. coord. in units 2pi/alat
        k(    1) = (   0.0000000   0.0000000   0.0000000), wk =   0.0160000
        k(    2) = (   0.1732051   0.1732051   0.0000000), wk =   0.1920000
        k(    3) = (   0.3464102   0.3464102   0.0000000), wk =   0.1920000
        k(    4) = (   0.3464102   0.1732051   0.1732051), wk =   0.3840000
        k(    5) = (   0.5196152   0.3464102   0.1732051), wk =   0.3840000
        k(    6) = (   0.3464102   0.3464102   0.3464102), wk =   0.1280000
        k(    7) = (   0.0000000   0.0000000   0.3464102), wk =   0.0960000
        k(    8) = (   0.0000000  -0.1732051   0.5196152), wk =   0.3840000
        k(    9) = (  -0.6928203  -0.1732051  -0.1732051), wk =   0.1280000
        k(   10) = (   0.0000000   0.0000000   0.6928203), wk =   0.0960000

     Dense  grid:    93723 G-vectors     FFT dimensions: (  64,  64,  64)

     Smooth grid:    33309 G-vectors     FFT dimensions: (  45,  45,  45)

     Estimated max dynamical RAM per process >     191.84 MB

     Estimated total dynamical RAM >     383.67 MB

     Initial potential from superposition of free atoms

     starting charge       9.9830, renormalised to      10.0000
     Starting wfcs are    5 randomized atomic wfcs +    4 random wfcs
     Checking if some PAW data can be deallocated... 

     total cpu time spent up to now is        2.5 secs

     Self-consistent Calculation

     iteration #  1     ecut=    70.00 Ry     beta= 0.70
     Davidson diagonalization with overlap
     ethr =  1.00E-02,  avg # of iterations =  7.4

     Threshold (ethr) on eigenvalues was too large:
     Diagonalizing with lowered threshold

     Davidson diagonalization with overlap
     ethr =  8.44E-06,  avg # of iterations =  8.8

     total cpu time spent up to now is        6.8 secs

     total energy              =    -436.18150142 Ry
     estimated scf accuracy    <       0.00085571 Ry

     iteration #  2     ecut=    70.00 Ry     beta= 0.70
     Davidson diagonalization with overlap
     ethr =  8.56E-06,  avg # of iterations =  1.2

     total cpu time spent up to now is        8.3 secs

     total energy              =    -436.18161062 Ry
     estimated scf accuracy    <       0.00009516 Ry

     iteration #  3     ecut=    70.00 Ry     beta= 0.70
     Davidson diagonalization with overlap
     ethr =  9.52E-07,  avg # of iterations =  2.2

     total cpu time spent up to now is       10.0 secs

     total energy              =    -436.18162236 Ry
     estimated scf accuracy    <       0.00000346 Ry

     iteration #  4     ecut=    70.00 Ry     beta= 0.70
     Davidson diagonalization with overlap
     ethr =  3.46E-08,  avg # of iterations =  4.0

     total cpu time spent up to now is       11.9 secs

     total energy              =    -436.18162372 Ry
     estimated scf accuracy    <       0.00000093 Ry

     iteration #  5     ecut=    70.00 Ry     beta= 0.70
     Davidson diagonalization with overlap
     ethr =  9.32E-09,  avg # of iterations =  2.0

     total cpu time spent up to now is       13.6 secs

     total energy              =    -436.18162387 Ry
     estimated scf accuracy    <       0.00000015 Ry

     iteration #  6     ecut=    70.00 Ry     beta= 0.70
     Davidson diagonalization with overlap
     ethr =  1.47E-09,  avg # of iterations =  2.0

     total cpu time spent up to now is       15.2 secs

     End of self-consistent calculation

          k = 0.0000 0.0000 0.0000 (  4093 PWs)   bands (ev):

   -22.9053  -7.8430  -7.8430  -7.8430   3.2080   7.8104   7.8104   7.8104
     9.2274

          k = 0.1732 0.1732 0.0000 (  4130 PWs)   bands (ev):

   -22.8895  -8.0174  -7.8972  -7.8442   3.9054   7.3133   7.3397   8.5609
     8.8955

          k = 0.3464 0.3464 0.0000 (  4160 PWs)   bands (ev):

   -22.8638  -8.2802  -7.9826  -7.8462   4.9676   6.7363   7.0268   9.2378
     9.6115

          k = 0.3464 0.1732 0.1732 (  4144 PWs)   bands (ev):

   -22.8687  -8.1925  -7.9741  -7.8815   4.9638   6.6520   6.9404   8.8237
     9.7092

          k = 0.5196 0.3464 0.1732 (  4131 PWs)   bands (ev):

   -22.8558  -8.2649  -8.0656  -7.8921   5.5900   6.5976   6.8212   9.0711
     9.8098

          k = 0.3464 0.3464 0.3464 (  4126 PWs)   bands (ev):

   -22.8584  -8.2045  -8.0054  -8.0054   6.1544   6.4481   6.4481   9.7791
    10.6044

          k = 0.0000 0.0000 0.3464 (  4137 PWs)   bands (ev):

   -22.8751  -8.0430  -7.9546  -7.9546   4.5280   7.2372   7.6989   7.6989
     8.5369

          k = 0.0000-0.1732 0.5196 (  4149 PWs)   bands (ev):

   -22.8517  -8.2370  -8.0449  -7.9669   5.5238   6.3701   7.4514   8.0833
     9.8032

          k =-0.6928-0.1732-0.1732 (  4175 PWs)   bands (ev):

   -22.8411  -8.1900  -8.1900  -7.9909   6.0031   6.0031   7.0059   9.3781
     9.3781

          k = 0.0000 0.0000 0.6928 (  4168 PWs)   bands (ev):

   -22.8320  -8.1748  -8.1426  -8.1426   5.6076   5.6101   9.0580   9.0580
     9.5436

     the Fermi energy is     6.0258 ev

!    total energy              =    -436.18162388 Ry
     total all-electron energy =    -16271.274740 Ry
     estimated scf accuracy    <          5.0E-09 Ry
     smearing contrib. (-TS)   =       0.00077293 Ry
     internal energy E=F+TS    =    -436.18239681 Ry

     The total energy is F=E-TS. E is the sum of the following terms:
     one-electron contribution =     -11.05849780 Ry
     hartree contribution      =       8.58254133 Ry
     xc contribution           =     -20.16451046 Ry
     ewald contribution        =     -38.59317448 Ry
     one-center paw contrib.   =    -374.94875539 Ry

     convergence has been achieved in   6 iterations

     Forces acting on atoms (cartesian axes, Ry/au):

     atom    1 type  1   force =     0.00000000    0.00000000    0.00000000

     Total force =     0.000000     Total SCF correction =     0.000000


     Computing stress (Cartesian axis) and pressure

          total   stress  (Ry/bohr**3)                   (kbar)     P=        0.31
   0.00000213   0.00000000   0.00000000            0.31        0.00        0.00
   0.00000000   0.00000213   0.00000000            0.00        0.31        0.00
   0.00000000   0.00000000   0.00000213            0.00        0.00        0.31


     BFGS Geometry Optimization
     Energy error            =      0.0E+00 Ry
     Gradient error          =      0.0E+00 Ry/Bohr

     bfgs converged in   1 scf cycles and   0 bfgs steps
     (criteria: energy <  1.0E-04 Ry, force <  1.0E-03 Ry/Bohr)

     End of BFGS Geometry Optimization

     Final energy             =    -436.1816238754 Ry
Begin final coordinates

ATOMIC_POSITIONS (angstrom)
Ba            0.0000000000        0.0000000000        0.0000000000
End final coordinates



     init_run     :      1.70s CPU      2.03s WALL (       1 calls)
     electrons    :     11.11s CPU     12.76s WALL (       1 calls)
     forces       :      0.48s CPU      0.55s WALL (       1 calls)
     stress       :      2.59s CPU      2.97s WALL (       1 calls)

     Called by init_run:
     wfcinit      :      0.28s CPU      0.32s WALL (       1 calls)
     potinit      :      0.39s CPU      0.46s WALL (       1 calls)
     hinit0       :      0.75s CPU      0.83s WALL (       1 calls)

     Called by electrons:
     c_bands      :      5.80s CPU      6.14s WALL (       7 calls)
     sum_band     :      2.50s CPU      3.24s WALL (       7 calls)
     v_of_rho     :      0.72s CPU      0.80s WALL (       7 calls)
     newd         :      1.29s CPU      1.87s WALL (       7 calls)
     PAW_pot      :      1.14s CPU      1.19s WALL (       7 calls)
     mix_rho      :      0.07s CPU      0.07s WALL (       7 calls)

     Called by c_bands:
     init_us_2    :      0.18s CPU      0.20s WALL (     170 calls)
     init_us_2:cp :      0.18s CPU      0.19s WALL (     170 calls)
     cegterg      :      5.51s CPU      5.83s WALL (      70 calls)

     Called by *egterg:
     cdiaghg      :      0.07s CPU      0.08s WALL (     336 calls)
     h_psi        :      5.09s CPU      5.40s WALL (     356 calls)
     s_psi        :      0.09s CPU      0.09s WALL (     356 calls)
     g_psi        :      0.02s CPU      0.02s WALL (     276 calls)

     Called by h_psi:
     h_psi:calbec :      0.13s CPU      0.15s WALL (     356 calls)
     vloc_psi     :      4.82s CPU      5.12s WALL (     356 calls)
     add_vuspsi   :      0.11s CPU      0.11s WALL (     356 calls)

     General routines
     calbec       :      0.20s CPU      0.22s WALL (     476 calls)
     fft          :      0.70s CPU      0.78s WALL (     115 calls)
     ffts         :      0.12s CPU      0.12s WALL (      14 calls)
     fftw         :      5.05s CPU      5.35s WALL (    4508 calls)
     interpolate  :      0.14s CPU      0.15s WALL (       7 calls)

     Parallel routines

     PWSCF        :     16.30s CPU     18.77s WALL


   This run was terminated on:   6:19:55   6May2024            

=------------------------------------------------------------------------------=
   JOB DONE.
=------------------------------------------------------------------------------=
