
     Program PWSCF v.7.1 starts on  6May2024 at  4:13: 1 

     This program is part of the open-source Quantum ESPRESSO suite
     for quantum simulation of materials; please cite
         "P. Giannozzi et al., J. Phys.:Condens. Matter 21 395502 (2009);
         "P. Giannozzi et al., J. Phys.:Condens. Matter 29 465901 (2017);
         "P. Giannozzi et al., J. Chem. Phys. 152 154105 (2020);
          URL http://www.quantum-espresso.org", 
     in publications or presentations arising from this work. More details at
     http://www.quantum-espresso.org/quote

     Parallel version (MPI), running on     2 processors

     MPI processes distributed on     1 nodes
     13747 MiB available memory on the printing compute node when the environment starts

     Waiting for input...
     Reading input from standard input
Warning: card &CELL ignored
Warning: card / ignored

     Current dimensions of program PWSCF are:
     Max number of different atomic species (ntypx) = 10
     Max number of k-points (npk) =  40000
     Max angular momentum in pseudopotentials (lmaxx) =  4
     file Ba.pbe-spn-kjpaw_psl.1.0.0.UPF: wavefunction(s)  5S 6S renormalized
     file Bi.pbe-dn-kjpaw_psl.1.0.0.UPF: wavefunction(s)  6P 5D renormalized
     file F.pbe-n-kjpaw_psl.1.0.0.UPF: wavefunction(s)  2S 2P renormalized
     file O.pbe-n-kjpaw_psl.1.0.0.UPF: wavefunction(s)  2S 2P renormalized
     Message from routine setup:
     using ibrav=0 with symmetry is DISCOURAGED, use correct ibrav instead

     R & G space division:  proc/nbgrp/npool/nimage =       2
     Subspace diagonalization in iterative solution of the eigenvalue problem:
     a serial algorithm will be used


     Parallelization info
     --------------------
     sticks:   dense  smooth     PW     G-vecs:    dense   smooth      PW
     Min        1542     774    218                64281    22776    3428
     Max        1543     775    219                64282    22777    3431
     Sum        3085    1549    437               128563    45553    6859

     Using Slab Decomposition



     bravais-lattice index     =            0
     lattice parameter (alat)  =       8.3148  a.u.
     unit-cell volume          =     574.8501 (a.u.)^3
     number of atoms/cell      =            5
     number of atomic types    =            4
     number of electrons       =        44.00
     number of Kohn-Sham states=           22
     kinetic-energy cutoff     =      70.0000  Ry
     charge density cutoff     =     560.0000  Ry
     scf convergence threshold =      1.0E-07
     mixing beta               =       0.7000
     number of iterations used =            8  plain     mixing
     Exchange-correlation= SLA  PW   PBX  PBC
                           (   1   4   3   4   0   0   0)

     celldm(1)=   8.314795  celldm(2)=   0.000000  celldm(3)=   0.000000
     celldm(4)=   0.000000  celldm(5)=   0.000000  celldm(6)=   0.000000

     crystal axes: (cart. coord. in units of alat)
               a(1) = (   1.000000   0.000000   0.000000 )  
               a(2) = (   0.000000   1.000000   0.000000 )  
               a(3) = (   0.000000   0.000000   1.000000 )  

     reciprocal axes: (cart. coord. in units 2 pi/alat)
               b(1) = (  1.000000  0.000000  0.000000 )  
               b(2) = (  0.000000  1.000000  0.000000 )  
               b(3) = (  0.000000  0.000000  1.000000 )  


     PseudoPot. # 1 for Ba read from file:
     /home/bond/Software/qe-7.1/pseudo/Ba.pbe-spn-kjpaw_psl.1.0.0.UPF
     MD5 check sum: 7cfe25f1fe7574a4710541d5a11d6531
     Pseudo is Projector augmented-wave + core cor, Zval = 10.0
     Generated using &quot;atomic&quot; code by A. Dal Corso  v.6.2.2
     Shape of augmentation charge: PSQ
     Using radial grid of 1251 points,  7 beta functions with: 
                l(1) =   0
                l(2) =   0
                l(3) =   0
                l(4) =   1
                l(5) =   1
                l(6) =   2
                l(7) =   2
     Q(r) pseudized with 0 coefficients 


     PseudoPot. # 2 for Bi read from file:
     /home/bond/Software/qe-7.1/pseudo/Bi.pbe-dn-kjpaw_psl.1.0.0.UPF
     MD5 check sum: 266ded784ae3bc462508ed03f0f37963
     Pseudo is Projector augmented-wave + core cor, Zval = 15.0
     Generated using &quot;atomic&quot; code by A. Dal Corso  v.6.2.2
     Shape of augmentation charge: PSQ
     Using radial grid of 1283 points,  6 beta functions with: 
                l(1) =   0
                l(2) =   0
                l(3) =   1
                l(4) =   1
                l(5) =   2
                l(6) =   2
     Q(r) pseudized with 0 coefficients 


     PseudoPot. # 3 for F  read from file:
     /home/bond/Software/qe-7.1/pseudo/F.pbe-n-kjpaw_psl.1.0.0.UPF
     MD5 check sum: 66d718ea72839a4268ab2a9540e8cdd4
     Pseudo is Projector augmented-wave + core cor, Zval =  7.0
     Generated using &quot;atomic&quot; code by A. Dal Corso  v.6.3
     Shape of augmentation charge: PSQ
     Using radial grid of 1105 points,  4 beta functions with: 
                l(1) =   0
                l(2) =   0
                l(3) =   1
                l(4) =   1
     Q(r) pseudized with 0 coefficients 


     PseudoPot. # 4 for O  read from file:
     /home/bond/Software/qe-7.1/pseudo/O.pbe-n-kjpaw_psl.1.0.0.UPF
     MD5 check sum: e99d9cef9b487d1ca56f5b95ecd0fd7a
     Pseudo is Projector augmented-wave + core cor, Zval =  6.0
     Generated using &quot;atomic&quot; code by A. Dal Corso  v.6.3
     Shape of augmentation charge: PSQ
     Using radial grid of 1095 points,  4 beta functions with: 
                l(1) =   0
                l(2) =   0
                l(3) =   1
                l(4) =   1
     Q(r) pseudized with 0 coefficients 


     atomic species   valence    mass     pseudopotential
        Ba            10.00   137.32700     Ba( 1.00)
        Bi            15.00   208.98040     Bi( 1.00)
        F              7.00    18.99840     F ( 1.00)
        O              6.00    15.99900     O ( 1.00)

     16 Sym. Ops., with inversion, found



   Cartesian axes

     site n.     atom                  positions (alat units)
         1           Ba  tau(   1) = (   0.5000000   0.5000000   0.5000000  )
         2           Bi  tau(   2) = (   0.0000000   0.0000000   0.0000000  )
         3           O   tau(   3) = (   0.0000000   0.0000000   0.5000000  )
         4           O   tau(   4) = (   0.5000000   0.0000000   0.0000000  )
         5           F   tau(   5) = (   0.0000000   0.5000000   0.0000000  )

     number of k points=    18
                       cart. coord. in units 2pi/alat
        k(    1) = (   0.0000000   0.0000000   0.0000000), wk =   0.0160000
        k(    2) = (   0.0000000   0.0000000   0.2000000), wk =   0.0640000
        k(    3) = (   0.0000000   0.0000000   0.4000000), wk =   0.0640000
        k(    4) = (   0.0000000   0.2000000   0.2000000), wk =   0.1280000
        k(    5) = (   0.0000000   0.2000000   0.4000000), wk =   0.1280000
        k(    6) = (   0.0000000   0.4000000   0.4000000), wk =   0.1280000
        k(    7) = (   0.2000000   0.2000000   0.2000000), wk =   0.1280000
        k(    8) = (   0.2000000   0.2000000   0.4000000), wk =   0.2560000
        k(    9) = (   0.2000000   0.4000000   0.4000000), wk =   0.2560000
        k(   10) = (   0.4000000   0.4000000   0.4000000), wk =   0.1280000
        k(   11) = (   0.0000000   0.2000000   0.0000000), wk =   0.0320000
        k(   12) = (   0.0000000   0.4000000   0.0000000), wk =   0.0320000
        k(   13) = (   0.2000000   0.0000000   0.2000000), wk =   0.0640000
        k(   14) = (   0.2000000   0.4000000   0.0000000), wk =   0.1280000
        k(   15) = (   0.4000000   0.0000000   0.2000000), wk =   0.1280000
        k(   16) = (   0.4000000   0.0000000   0.4000000), wk =   0.0640000
        k(   17) = (   0.2000000   0.4000000   0.2000000), wk =   0.1280000
        k(   18) = (   0.4000000   0.2000000   0.4000000), wk =   0.1280000

     Dense  grid:   128563 G-vectors     FFT dimensions: (  64,  64,  64)

     Smooth grid:    45553 G-vectors     FFT dimensions: (  45,  45,  45)

     Estimated max dynamical RAM per process >     287.99 MB

     Estimated total dynamical RAM >     575.97 MB

     Initial potential from superposition of free atoms

     starting charge      43.9822, renormalised to      44.0000
     Starting wfcs are   26 randomized atomic wfcs
     Checking if some PAW data can be deallocated... 

     total cpu time spent up to now is        6.2 secs

     Self-consistent Calculation

     iteration #  1     ecut=    70.00 Ry     beta= 0.70
     Davidson diagonalization with overlap
     ethr =  1.00E-02,  avg # of iterations =  1.5

     total cpu time spent up to now is       12.3 secs

     total energy              =   -1484.43603453 Ry
     estimated scf accuracy    <       1.70678728 Ry

     iteration #  2     ecut=    70.00 Ry     beta= 0.70
     Davidson diagonalization with overlap
     ethr =  3.88E-03,  avg # of iterations =  7.7

     total cpu time spent up to now is       21.0 secs

     total energy              =   -1484.69217651 Ry
     estimated scf accuracy    <       4.97362830 Ry

     iteration #  3     ecut=    70.00 Ry     beta= 0.70
     Davidson diagonalization with overlap
     ethr =  3.88E-03,  avg # of iterations =  5.7

     total cpu time spent up to now is       28.5 secs

     total energy              =   -1485.40806473 Ry
     estimated scf accuracy    <       0.09945978 Ry

     iteration #  4     ecut=    70.00 Ry     beta= 0.70
     Davidson diagonalization with overlap
     ethr =  2.26E-04,  avg # of iterations =  7.2

     total cpu time spent up to now is       36.8 secs

     total energy              =   -1485.50589871 Ry
     estimated scf accuracy    <       0.01586841 Ry

     iteration #  5     ecut=    70.00 Ry     beta= 0.70
     Davidson diagonalization with overlap
     ethr =  3.61E-05,  avg # of iterations =  4.6

     total cpu time spent up to now is       44.8 secs

     total energy              =   -1485.50775305 Ry
     estimated scf accuracy    <       0.00426417 Ry

     iteration #  6     ecut=    70.00 Ry     beta= 0.70
     Davidson diagonalization with overlap
     ethr =  9.69E-06,  avg # of iterations =  5.6

     total cpu time spent up to now is       53.3 secs

     total energy              =   -1485.50933209 Ry
     estimated scf accuracy    <       0.00057335 Ry

     iteration #  7     ecut=    70.00 Ry     beta= 0.70
     Davidson diagonalization with overlap
     ethr =  1.30E-06,  avg # of iterations =  4.7

     total cpu time spent up to now is       60.5 secs

     total energy              =   -1485.50942815 Ry
     estimated scf accuracy    <       0.00003039 Ry

     iteration #  8     ecut=    70.00 Ry     beta= 0.70
     Davidson diagonalization with overlap
     ethr =  6.91E-08,  avg # of iterations =  9.1

     total cpu time spent up to now is       71.5 secs

     total energy              =   -1485.50943357 Ry
     estimated scf accuracy    <       0.00018962 Ry

     iteration #  9     ecut=    70.00 Ry     beta= 0.70
     Davidson diagonalization with overlap
     ethr =  6.91E-08,  avg # of iterations =  7.5

     total cpu time spent up to now is       81.4 secs

     total energy              =   -1485.50948405 Ry
     estimated scf accuracy    <       0.00001977 Ry

     iteration # 10     ecut=    70.00 Ry     beta= 0.70
     Davidson diagonalization with overlap
     ethr =  4.49E-08,  avg # of iterations =  2.1

     total cpu time spent up to now is       88.3 secs

     total energy              =   -1485.50948214 Ry
     estimated scf accuracy    <       0.00000579 Ry

     iteration # 11     ecut=    70.00 Ry     beta= 0.70
     Davidson diagonalization with overlap
     ethr =  1.31E-08,  avg # of iterations =  6.3

     total cpu time spent up to now is       97.2 secs

     total energy              =   -1485.50948649 Ry
     estimated scf accuracy    <       0.00000856 Ry

     iteration # 12     ecut=    70.00 Ry     beta= 0.70
     Davidson diagonalization with overlap
     ethr =  1.31E-08,  avg # of iterations =  2.0

     total cpu time spent up to now is      104.0 secs

     total energy              =   -1485.50948632 Ry
     estimated scf accuracy    <       0.00000398 Ry

     iteration # 13     ecut=    70.00 Ry     beta= 0.70
     Davidson diagonalization with overlap
     ethr =  9.04E-09,  avg # of iterations =  2.8

     total cpu time spent up to now is      111.2 secs

     total energy              =   -1485.50948654 Ry
     estimated scf accuracy    <       0.00000136 Ry

     iteration # 14     ecut=    70.00 Ry     beta= 0.70
     Davidson diagonalization with overlap
     ethr =  3.09E-09,  avg # of iterations =  4.6

     total cpu time spent up to now is      118.4 secs

     total energy              =   -1485.50948677 Ry
     estimated scf accuracy    <       0.00000018 Ry

     iteration # 15     ecut=    70.00 Ry     beta= 0.70
     Davidson diagonalization with overlap
     ethr =  4.16E-10,  avg # of iterations =  5.8

     total cpu time spent up to now is      126.4 secs

     End of self-consistent calculation

          k = 0.0000 0.0000 0.0000 (  5695 PWs)   bands (ev):

   -17.2827 -14.9939 -11.8174 -11.5769 -11.5769 -11.3786 -11.3314  -7.1117
    -5.4799  -2.4505  -2.4505  -2.2481   2.1720   3.7985   3.8816   3.8816
     5.6991   5.6991   8.0573   8.3876   8.7238   8.7238

          k = 0.0000 0.0000 0.2000 (  5670 PWs)   bands (ev):

   -17.2688 -15.0043 -11.7726 -11.5804 -11.5767 -11.3821 -11.2996  -7.0509
    -5.7477  -2.4209  -2.4189  -2.2186   2.1626   2.5364   3.7900   4.0946
     5.7673   7.0852   7.9896   8.3169   8.6478   8.8029

          k = 0.0000 0.0000 0.4000 (  5678 PWs)   bands (ev):

   -17.2460 -15.0216 -11.7125 -11.5861 -11.5765 -11.3878 -11.2276  -6.8227
    -6.3126  -2.3856  -2.3664  -2.1698   1.7140   2.1452   3.6416   3.9758
     5.8874   7.6270   7.7955   8.3177   8.5198  10.4189

          k = 0.0000 0.2000 0.2000 (  5692 PWs)   bands (ev):

   -17.2606 -14.8694 -11.7733 -11.5844 -11.5811 -11.4797 -11.3819  -7.1885
    -5.7380  -2.4445  -2.3972  -2.1761   1.1344   3.9226   3.9266   4.2973
     5.5906   6.9528   7.9441   8.1479   8.5121   8.8504

          k = 0.0000 0.2000 0.4000 (  5663 PWs)   bands (ev):

   -17.2393 -14.8865 -11.7216 -11.5895 -11.5807 -11.4067 -11.3874  -6.8911
    -6.3261  -2.4581  -2.3513  -2.1875   0.5959   3.7888   3.8523   4.0017
     5.7367   7.6322   7.9782   8.1838   8.3487  10.5306

          k = 0.0000 0.4000 0.4000 (  5678 PWs)   bands (ev):

   -17.2284 -14.6295 -11.8345 -11.6414 -11.5950 -11.5876 -11.3869  -6.9960
    -6.3439  -2.5618  -2.3266  -2.2261   0.0019   4.0090   4.0954   5.4229
     5.6014   7.6846   8.0297   8.0964   8.1103  10.8724

          k = 0.2000 0.2000 0.2000 (  5689 PWs)   bands (ev):

   -17.2497 -14.8754 -11.7181 -11.5847 -11.5841 -11.4597 -11.3851  -7.1181
    -5.9438  -2.4553  -2.4259  -2.1672   0.5963   3.6120   4.1254   4.1745
     6.3565   7.2260   8.0302   8.1138   8.8480   8.9010

          k = 0.2000 0.2000 0.4000 (  5678 PWs)   bands (ev):

   -17.2318 -14.8852 -11.6487 -11.5897 -11.5843 -11.4006 -11.3904  -6.8765
    -6.4190  -2.4863  -2.4307  -2.1859  -0.0352   3.5204   4.0651   4.1565
     6.8910   7.4534   7.9391   8.1358   8.8026  10.6836

          k = 0.2000 0.4000 0.4000 (  5696 PWs)   bands (ev):

   -17.2214 -14.6279 -11.7889 -11.6146 -11.5961 -11.5914 -11.3907  -6.9435
    -6.4051  -2.5886  -2.4502  -2.2763  -0.6397   4.0848   4.2401   5.1960
     6.8429   7.7008   7.9713   8.1527   8.6830  11.0043

          k = 0.4000 0.4000 0.4000 (  5718 PWs)   bands (ev):

   -17.2099 -14.6253 -11.7432 -11.5981 -11.5974 -11.5369 -11.3968  -6.7927
    -6.5796  -2.6357  -2.6170  -2.3727  -1.4305   4.2656   4.3556   5.1636
     7.6964   8.2362   8.2579   8.4083   9.2275  11.6399

          k = 0.0000 0.2000 0.0000 (  5670 PWs)   bands (ev):

   -17.2737 -14.8592 -11.8168 -11.5813 -11.5813 -11.5091 -11.3784  -7.2773
    -5.4747  -2.4249  -2.4249  -2.1859   1.5856   4.0044   4.0044   4.9857
     5.5105   5.5105   7.7788   8.1317   8.6058   8.6058

          k = 0.0000 0.4000 0.0000 (  5678 PWs)   bands (ev):

   -17.2590 -14.6022 -11.8413 -11.8160 -11.5884 -11.5884 -11.3782  -7.5183
    -5.4662  -2.3830  -2.3830  -2.1063   1.1453   4.2913   4.2913   5.1186
     5.1186   6.4985   7.4758   7.7884   8.4392   8.4392

          k = 0.2000 0.0000 0.2000 (  5692 PWs)   bands (ev):

   -17.2572 -15.0104 -11.7187 -11.5804 -11.5801 -11.3852 -11.2743  -7.0082
    -5.9625  -2.4404  -2.3879  -2.1938   1.6145   2.1666   3.9916   4.0905
     6.5001   7.3474   7.9847   8.1791   8.8076   8.8912

          k = 0.2000 0.4000 0.0000 (  5663 PWs)   bands (ev):

   -17.2474 -14.6125 -11.8356 -11.7542 -11.5910 -11.5881 -11.3815  -7.3911
    -5.7218  -2.4554  -2.3617  -2.1516   0.5987   4.1934   4.2173   5.2245
     5.4083   6.9879   7.7464   7.9411   8.3177   9.0315

          k = 0.4000 0.0000 0.2000 (  5663 PWs)   bands (ev):

   -17.2383 -15.0205 -11.6433 -11.5858 -11.5798 -11.3903 -11.2130  -6.8331
    -6.4261  -2.4262  -2.3908  -2.1529   0.8083   2.1716   3.9740   4.0946
     6.9638   7.3444   7.8226   8.1398   8.8421  10.5962

          k = 0.4000 0.0000 0.4000 (  5678 PWs)   bands (ev):

   -17.2257 -15.0186 -11.5853 -11.5852 -11.5374 -11.3943 -11.1739  -6.8135
    -6.6624  -2.4692  -2.4492  -2.1252  -0.0652   2.2144   4.1782   4.2515
     7.0022   7.8607   7.8838   8.4060   9.2205  11.5938

          k = 0.2000 0.4000 0.2000 (  5678 PWs)   bands (ev):

   -17.2376 -14.6183 -11.8032 -11.7173 -11.5921 -11.5902 -11.3850  -7.2815
    -5.9130  -2.4803  -2.4277  -2.1975   0.0230   4.0772   4.3264   5.1719
     6.1336   7.2438   7.8342   8.0315   8.7149   9.2572

          k = 0.4000 0.2000 0.4000 (  5696 PWs)   bands (ev):

   -17.2197 -14.8831 -11.5902 -11.5900 -11.5372 -11.3953 -11.3761  -6.8060
    -6.6314  -2.5325  -2.5197  -2.2163  -0.7924   3.4702   4.2201   4.2909
     7.2531   8.0055   8.0251   8.4156   9.2336  11.5991

     highest occupied level (ev):    11.6399

!    total energy              =   -1485.50948687 Ry
     total all-electron energy =    -59834.167100 Ry
     estimated scf accuracy    <          6.6E-09 Ry

     The total energy is the sum of the following terms:
     one-electron contribution =     -96.93879023 Ry
     hartree contribution      =      82.17774614 Ry
     xc contribution           =     -77.68361585 Ry
     ewald contribution        =    -231.13741736 Ry
     one-center paw contrib.   =   -1161.92740956 Ry

     convergence has been achieved in  15 iterations

     Forces acting on atoms (cartesian axes, Ry/au):

     atom    1 type  1   force =     0.00000000    0.00000000    0.00000000
     atom    2 type  2   force =     0.00000000    0.00000000    0.00000000
     atom    3 type  4   force =     0.00000000    0.00000000    0.00000000
     atom    4 type  4   force =     0.00000000    0.00000000    0.00000000
     atom    5 type  3   force =     0.00000000    0.00000000    0.00000000

     Total force =     0.000000     Total SCF correction =     0.000000


     Computing stress (Cartesian axis) and pressure

          total   stress  (Ry/bohr**3)                   (kbar)     P=      149.55
   0.00105086   0.00000000   0.00000000          154.59        0.00        0.00
   0.00000000   0.00094803   0.00000000            0.00      139.46        0.00
   0.00000000   0.00000000   0.00105086            0.00        0.00      154.59


     init_run     :      4.56s CPU      5.02s WALL (       1 calls)
     electrons    :    104.12s CPU    120.16s WALL (       1 calls)
     forces       :      1.41s CPU      1.77s WALL (       1 calls)
     stress       :      8.03s CPU      9.30s WALL (       1 calls)

     Called by init_run:
     wfcinit      :      1.59s CPU      1.70s WALL (       1 calls)
     potinit      :      0.83s CPU      0.85s WALL (       1 calls)
     hinit0       :      1.56s CPU      1.66s WALL (       1 calls)

     Called by electrons:
     c_bands      :     68.59s CPU     75.43s WALL (      15 calls)
     sum_band     :     18.29s CPU     23.12s WALL (      15 calls)
     v_of_rho     :      1.88s CPU      2.18s WALL (      16 calls)
     newd         :      7.65s CPU     11.37s WALL (      16 calls)
     PAW_pot      :      8.34s CPU      8.87s WALL (      16 calls)
     mix_rho      :      0.27s CPU      0.28s WALL (      15 calls)

     Called by c_bands:
     init_us_2    :      1.63s CPU      1.71s WALL (     594 calls)
     init_us_2:cp :      1.62s CPU      1.71s WALL (     594 calls)
     cegterg      :     65.25s CPU     71.85s WALL (     270 calls)

     Called by *egterg:
     cdiaghg      :      1.59s CPU      1.69s WALL (    1659 calls)
     h_psi        :     53.04s CPU     58.59s WALL (    1677 calls)
     s_psi        :      2.37s CPU      2.54s WALL (    1677 calls)
     g_psi        :      0.29s CPU      0.30s WALL (    1389 calls)

     Called by h_psi:
     h_psi:calbec :      2.92s CPU      3.16s WALL (    1677 calls)
     vloc_psi     :     47.20s CPU     52.27s WALL (    1677 calls)
     add_vuspsi   :      2.66s CPU      2.88s WALL (    1677 calls)

     General routines
     calbec       :      4.03s CPU      4.36s WALL (    2037 calls)
     fft          :      1.36s CPU      1.61s WALL (     231 calls)
     ffts         :      0.15s CPU      0.16s WALL (      31 calls)
     fftw         :     49.84s CPU     55.27s WALL (   42038 calls)
     interpolate  :      0.21s CPU      0.22s WALL (      16 calls)

     Parallel routines

     PWSCF        :   1m59.23s CPU   2m17.46s WALL


   This run was terminated on:   4:15:18   6May2024            

=------------------------------------------------------------------------------=
   JOB DONE.
=------------------------------------------------------------------------------=
