
     Program PWSCF v.7.1 starts on  6May2024 at  7:22:43 

     This program is part of the open-source Quantum ESPRESSO suite
     for quantum simulation of materials; please cite
         "P. Giannozzi et al., J. Phys.:Condens. Matter 21 395502 (2009);
         "P. Giannozzi et al., J. Phys.:Condens. Matter 29 465901 (2017);
         "P. Giannozzi et al., J. Chem. Phys. 152 154105 (2020);
          URL http://www.quantum-espresso.org", 
     in publications or presentations arising from this work. More details at
     http://www.quantum-espresso.org/quote

     Parallel version (MPI), running on     2 processors

     MPI processes distributed on     1 nodes
     13495 MiB available memory on the printing compute node when the environment starts

     Waiting for input...
     Reading input from standard input
Warning: card &CELL ignored
Warning: card / ignored

     Current dimensions of program PWSCF are:
     Max number of different atomic species (ntypx) = 10
     Max number of k-points (npk) =  40000
     Max angular momentum in pseudopotentials (lmaxx) =  4
     file Ba.pbe-spn-kjpaw_psl.1.0.0.UPF: wavefunction(s)  5S 6S renormalized
     file Bi.pbe-dn-kjpaw_psl.1.0.0.UPF: wavefunction(s)  6P 5D renormalized
     file N.pbe-n-kjpaw_psl.1.0.0.UPF: wavefunction(s)  2S renormalized
     file O.pbe-n-kjpaw_psl.1.0.0.UPF: wavefunction(s)  2S 2P renormalized
     Message from routine setup:
     using ibrav=0 with symmetry is DISCOURAGED, use correct ibrav instead

     R & G space division:  proc/nbgrp/npool/nimage =       2
     Subspace diagonalization in iterative solution of the eigenvalue problem:
     a serial algorithm will be used


     Parallelization info
     --------------------
     sticks:   dense  smooth     PW     G-vecs:    dense   smooth      PW
     Min        1508     752    214                62411    22029    3333
     Max        1509     753    215                62412    22030    3334
     Sum        3017    1505    429               124823    44059    6667

     Using Slab Decomposition



     bravais-lattice index     =            0
     lattice parameter (alat)  =       8.2392  a.u.
     unit-cell volume          =     559.3145 (a.u.)^3
     number of atoms/cell      =            5
     number of atomic types    =            4
     number of electrons       =        42.00
     number of Kohn-Sham states=           21
     kinetic-energy cutoff     =      70.0000  Ry
     charge density cutoff     =     560.0000  Ry
     scf convergence threshold =      1.0E-07
     mixing beta               =       0.7000
     number of iterations used =            8  plain     mixing
     Exchange-correlation= SLA  PW   PBX  PBC
                           (   1   4   3   4   0   0   0)

     celldm(1)=   8.239206  celldm(2)=   0.000000  celldm(3)=   0.000000
     celldm(4)=   0.000000  celldm(5)=   0.000000  celldm(6)=   0.000000

     crystal axes: (cart. coord. in units of alat)
               a(1) = (   1.000000   0.000000   0.000000 )  
               a(2) = (   0.000000   1.000000   0.000000 )  
               a(3) = (   0.000000   0.000000   1.000000 )  

     reciprocal axes: (cart. coord. in units 2 pi/alat)
               b(1) = (  1.000000  0.000000  0.000000 )  
               b(2) = (  0.000000  1.000000  0.000000 )  
               b(3) = (  0.000000  0.000000  1.000000 )  


     PseudoPot. # 1 for Ba read from file:
     /home/bond/Software/qe-7.1/pseudo/Ba.pbe-spn-kjpaw_psl.1.0.0.UPF
     MD5 check sum: 7cfe25f1fe7574a4710541d5a11d6531
     Pseudo is Projector augmented-wave + core cor, Zval = 10.0
     Generated using &quot;atomic&quot; code by A. Dal Corso  v.6.2.2
     Shape of augmentation charge: PSQ
     Using radial grid of 1251 points,  7 beta functions with: 
                l(1) =   0
                l(2) =   0
                l(3) =   0
                l(4) =   1
                l(5) =   1
                l(6) =   2
                l(7) =   2
     Q(r) pseudized with 0 coefficients 


     PseudoPot. # 2 for Bi read from file:
     /home/bond/Software/qe-7.1/pseudo/Bi.pbe-dn-kjpaw_psl.1.0.0.UPF
     MD5 check sum: 266ded784ae3bc462508ed03f0f37963
     Pseudo is Projector augmented-wave + core cor, Zval = 15.0
     Generated using &quot;atomic&quot; code by A. Dal Corso  v.6.2.2
     Shape of augmentation charge: PSQ
     Using radial grid of 1283 points,  6 beta functions with: 
                l(1) =   0
                l(2) =   0
                l(3) =   1
                l(4) =   1
                l(5) =   2
                l(6) =   2
     Q(r) pseudized with 0 coefficients 


     PseudoPot. # 3 for N  read from file:
     /home/bond/Software/qe-7.1/pseudo/N.pbe-n-kjpaw_psl.1.0.0.UPF
     MD5 check sum: 14c48229446f9f2d411169a3abcbc3fa
     Pseudo is Projector augmented-wave + core cor, Zval =  5.0
     Generated using &quot;atomic&quot; code by A. Dal Corso  v.6.3
     Shape of augmentation charge: PSQ
     Using radial grid of 1085 points,  4 beta functions with: 
                l(1) =   0
                l(2) =   0
                l(3) =   1
                l(4) =   1
     Q(r) pseudized with 0 coefficients 


     PseudoPot. # 4 for O  read from file:
     /home/bond/Software/qe-7.1/pseudo/O.pbe-n-kjpaw_psl.1.0.0.UPF
     MD5 check sum: e99d9cef9b487d1ca56f5b95ecd0fd7a
     Pseudo is Projector augmented-wave + core cor, Zval =  6.0
     Generated using &quot;atomic&quot; code by A. Dal Corso  v.6.3
     Shape of augmentation charge: PSQ
     Using radial grid of 1095 points,  4 beta functions with: 
                l(1) =   0
                l(2) =   0
                l(3) =   1
                l(4) =   1
     Q(r) pseudized with 0 coefficients 


     atomic species   valence    mass     pseudopotential
        Ba            10.00   137.32700     Ba( 1.00)
        Bi            15.00   208.98040     Bi( 1.00)
        N              5.00    14.00700     N ( 1.00)
        O              6.00    15.99900     O ( 1.00)

     16 Sym. Ops., with inversion, found



   Cartesian axes

     site n.     atom                  positions (alat units)
         1           Ba  tau(   1) = (   0.5000000   0.5000000   0.5000000  )
         2           Bi  tau(   2) = (   0.0000000   0.0000000   0.0000000  )
         3           O   tau(   3) = (   0.0000000   0.0000000   0.5000000  )
         4           O   tau(   4) = (   0.5000000   0.0000000   0.0000000  )
         5           N   tau(   5) = (   0.0000000   0.5000000   0.0000000  )

     number of k points=    18
                       cart. coord. in units 2pi/alat
        k(    1) = (   0.0000000   0.0000000   0.0000000), wk =   0.0160000
        k(    2) = (   0.0000000   0.0000000   0.2000000), wk =   0.0640000
        k(    3) = (   0.0000000   0.0000000   0.4000000), wk =   0.0640000
        k(    4) = (   0.0000000   0.2000000   0.2000000), wk =   0.1280000
        k(    5) = (   0.0000000   0.2000000   0.4000000), wk =   0.1280000
        k(    6) = (   0.0000000   0.4000000   0.4000000), wk =   0.1280000
        k(    7) = (   0.2000000   0.2000000   0.2000000), wk =   0.1280000
        k(    8) = (   0.2000000   0.2000000   0.4000000), wk =   0.2560000
        k(    9) = (   0.2000000   0.4000000   0.4000000), wk =   0.2560000
        k(   10) = (   0.4000000   0.4000000   0.4000000), wk =   0.1280000
        k(   11) = (   0.0000000   0.2000000   0.0000000), wk =   0.0320000
        k(   12) = (   0.0000000   0.4000000   0.0000000), wk =   0.0320000
        k(   13) = (   0.2000000   0.0000000   0.2000000), wk =   0.0640000
        k(   14) = (   0.2000000   0.4000000   0.0000000), wk =   0.1280000
        k(   15) = (   0.4000000   0.0000000   0.2000000), wk =   0.1280000
        k(   16) = (   0.4000000   0.0000000   0.4000000), wk =   0.0640000
        k(   17) = (   0.2000000   0.4000000   0.2000000), wk =   0.1280000
        k(   18) = (   0.4000000   0.2000000   0.4000000), wk =   0.1280000

     Dense  grid:   124823 G-vectors     FFT dimensions: (  64,  64,  64)

     Smooth grid:    44059 G-vectors     FFT dimensions: (  45,  45,  45)

     Estimated max dynamical RAM per process >     279.41 MB

     Estimated total dynamical RAM >     558.82 MB

     Initial potential from superposition of free atoms

     starting charge      41.9822, renormalised to      42.0000
     Starting wfcs are   26 randomized atomic wfcs
     Checking if some PAW data can be deallocated... 

     total cpu time spent up to now is        6.2 secs

     Self-consistent Calculation

     iteration #  1     ecut=    70.00 Ry     beta= 0.70
     Davidson diagonalization with overlap
     ethr =  1.00E-02,  avg # of iterations =  1.9

     total cpu time spent up to now is       11.9 secs

     total energy              =   -1453.13251348 Ry
     estimated scf accuracy    <       1.63438359 Ry

     iteration #  2     ecut=    70.00 Ry     beta= 0.70
     Davidson diagonalization with overlap
     ethr =  3.89E-03,  avg # of iterations =  5.6

     total cpu time spent up to now is       20.1 secs

     total energy              =   -1453.75121823 Ry
     estimated scf accuracy    <       2.48242109 Ry

     iteration #  3     ecut=    70.00 Ry     beta= 0.70
     Davidson diagonalization with overlap
     ethr =  3.89E-03,  avg # of iterations =  2.3

     total cpu time spent up to now is       26.4 secs

     total energy              =   -1453.88190235 Ry
     estimated scf accuracy    <       0.41086016 Ry

     iteration #  4     ecut=    70.00 Ry     beta= 0.70
     Davidson diagonalization with overlap
     ethr =  9.78E-04,  avg # of iterations =  5.3

     total cpu time spent up to now is       34.1 secs

     total energy              =   -1454.13272430 Ry
     estimated scf accuracy    <       0.05828726 Ry

     iteration #  5     ecut=    70.00 Ry     beta= 0.70
     Davidson diagonalization with overlap
     ethr =  1.39E-04,  avg # of iterations =  5.1

     total cpu time spent up to now is       41.0 secs

     total energy              =   -1454.12587311 Ry
     estimated scf accuracy    <       0.09542932 Ry

     iteration #  6     ecut=    70.00 Ry     beta= 0.70
     Davidson diagonalization with overlap
     ethr =  1.39E-04,  avg # of iterations =  2.0

     total cpu time spent up to now is       47.1 secs

     total energy              =   -1454.11303649 Ry
     estimated scf accuracy    <       0.03828876 Ry

     iteration #  7     ecut=    70.00 Ry     beta= 0.70
     Davidson diagonalization with overlap
     ethr =  9.12E-05,  avg # of iterations =  5.1

     total cpu time spent up to now is       54.5 secs

     total energy              =   -1454.13019174 Ry
     estimated scf accuracy    <       0.00369847 Ry

     iteration #  8     ecut=    70.00 Ry     beta= 0.70
     Davidson diagonalization with overlap
     ethr =  8.81E-06,  avg # of iterations =  6.6

     total cpu time spent up to now is       61.6 secs

     total energy              =   -1454.13306333 Ry
     estimated scf accuracy    <       0.00666198 Ry

     iteration #  9     ecut=    70.00 Ry     beta= 0.70
     Davidson diagonalization with overlap
     ethr =  8.81E-06,  avg # of iterations =  2.2

     total cpu time spent up to now is       67.6 secs

     total energy              =   -1454.13203159 Ry
     estimated scf accuracy    <       0.00986692 Ry

     iteration # 10     ecut=    70.00 Ry     beta= 0.70
     Davidson diagonalization with overlap
     ethr =  8.81E-06,  avg # of iterations =  1.2

     total cpu time spent up to now is       73.0 secs

     total energy              =   -1454.12585473 Ry
     estimated scf accuracy    <       0.00804161 Ry

     iteration # 11     ecut=    70.00 Ry     beta= 0.70
     Davidson diagonalization with overlap
     c_bands:  1 eigenvalues not converged
     ethr =  8.81E-06,  avg # of iterations = 11.1

     total cpu time spent up to now is       83.9 secs

     total energy              =   -1454.13225188 Ry
     estimated scf accuracy    <       0.04952047 Ry

     iteration # 12     ecut=    70.00 Ry     beta= 0.70
     Davidson diagonalization with overlap
     ethr =  8.81E-06,  avg # of iterations =  6.1

     total cpu time spent up to now is       91.2 secs

     total energy              =   -1454.13372164 Ry
     estimated scf accuracy    <       0.02243520 Ry

     iteration # 13     ecut=    70.00 Ry     beta= 0.70
     Davidson diagonalization with overlap
     ethr =  8.81E-06,  avg # of iterations =  1.5

     total cpu time spent up to now is       97.1 secs

     total energy              =   -1454.13124269 Ry
     estimated scf accuracy    <       0.02088338 Ry

     iteration # 14     ecut=    70.00 Ry     beta= 0.70
     Davidson diagonalization with overlap
     ethr =  8.81E-06,  avg # of iterations =  4.8

     total cpu time spent up to now is      103.7 secs

     total energy              =   -1454.13606410 Ry
     estimated scf accuracy    <       0.01247614 Ry

     iteration # 15     ecut=    70.00 Ry     beta= 0.70
     Davidson diagonalization with overlap
     ethr =  8.81E-06,  avg # of iterations =  3.8

     total cpu time spent up to now is      110.3 secs

     total energy              =   -1454.13251938 Ry
     estimated scf accuracy    <       0.02457733 Ry

     iteration # 16     ecut=    70.00 Ry     beta= 0.70
     Davidson diagonalization with overlap
     ethr =  8.81E-06,  avg # of iterations =  2.1

     total cpu time spent up to now is      116.1 secs

     total energy              =   -1454.13291877 Ry
     estimated scf accuracy    <       0.01629958 Ry

     iteration # 17     ecut=    70.00 Ry     beta= 0.70
     Davidson diagonalization with overlap
     ethr =  8.81E-06,  avg # of iterations =  1.2

     total cpu time spent up to now is      121.7 secs

     total energy              =   -1454.12542859 Ry
     estimated scf accuracy    <       0.01601442 Ry

     iteration # 18     ecut=    70.00 Ry     beta= 0.70
     Davidson diagonalization with overlap
     c_bands:  1 eigenvalues not converged
     ethr =  8.81E-06,  avg # of iterations = 10.9

     total cpu time spent up to now is      130.9 secs

     total energy              =   -1454.13308815 Ry
     estimated scf accuracy    <       0.01006121 Ry

     iteration # 19     ecut=    70.00 Ry     beta= 0.70
     Davidson diagonalization with overlap
     ethr =  8.81E-06,  avg # of iterations =  2.5

     total cpu time spent up to now is      137.1 secs

     total energy              =   -1454.13211459 Ry
     estimated scf accuracy    <       0.01611460 Ry

     iteration # 20     ecut=    70.00 Ry     beta= 0.70
     Davidson diagonalization with overlap
     ethr =  8.81E-06,  avg # of iterations =  1.6

     total cpu time spent up to now is      142.7 secs

     total energy              =   -1454.13044809 Ry
     estimated scf accuracy    <       0.01191865 Ry

     iteration # 21     ecut=    70.00 Ry     beta= 0.70
     Davidson diagonalization with overlap
     ethr =  8.81E-06,  avg # of iterations =  2.8

     total cpu time spent up to now is      149.2 secs

     total energy              =   -1454.13098108 Ry
     estimated scf accuracy    <       0.00591189 Ry

     iteration # 22     ecut=    70.00 Ry     beta= 0.70
     Davidson diagonalization with overlap
     ethr =  8.81E-06,  avg # of iterations =  1.3

     total cpu time spent up to now is      154.9 secs

     total energy              =   -1454.12988503 Ry
     estimated scf accuracy    <       0.00549222 Ry

     iteration # 23     ecut=    70.00 Ry     beta= 0.70
     Davidson diagonalization with overlap
     ethr =  8.81E-06,  avg # of iterations =  2.7

     total cpu time spent up to now is      161.4 secs

     total energy              =   -1454.12978423 Ry
     estimated scf accuracy    <       0.00219894 Ry

     iteration # 24     ecut=    70.00 Ry     beta= 0.70
     Davidson diagonalization with overlap
     ethr =  5.24E-06,  avg # of iterations =  5.3

     total cpu time spent up to now is      168.1 secs

     total energy              =   -1454.13136140 Ry
     estimated scf accuracy    <       0.00251384 Ry

     iteration # 25     ecut=    70.00 Ry     beta= 0.70
     Davidson diagonalization with overlap
     ethr =  5.24E-06,  avg # of iterations =  1.5

     total cpu time spent up to now is      174.0 secs

     total energy              =   -1454.13123104 Ry
     estimated scf accuracy    <       0.00216680 Ry

     iteration # 26     ecut=    70.00 Ry     beta= 0.70
     Davidson diagonalization with overlap
     ethr =  5.16E-06,  avg # of iterations =  1.1

     total cpu time spent up to now is      179.9 secs

     total energy              =   -1454.13100083 Ry
     estimated scf accuracy    <       0.00189229 Ry

     iteration # 27     ecut=    70.00 Ry     beta= 0.70
     Davidson diagonalization with overlap
     ethr =  4.51E-06,  avg # of iterations =  1.2

     total cpu time spent up to now is      185.3 secs

     total energy              =   -1454.13073889 Ry
     estimated scf accuracy    <       0.00137295 Ry

     iteration # 28     ecut=    70.00 Ry     beta= 0.70
     Davidson diagonalization with overlap
     ethr =  3.27E-06,  avg # of iterations =  1.9

     total cpu time spent up to now is      191.1 secs

     total energy              =   -1454.13078798 Ry
     estimated scf accuracy    <       0.00066350 Ry

     iteration # 29     ecut=    70.00 Ry     beta= 0.70
     Davidson diagonalization with overlap
     ethr =  1.58E-06,  avg # of iterations =  1.8

     total cpu time spent up to now is      196.9 secs

     total energy              =   -1454.13076374 Ry
     estimated scf accuracy    <       0.00054650 Ry

     iteration # 30     ecut=    70.00 Ry     beta= 0.70
     Davidson diagonalization with overlap
     ethr =  1.30E-06,  avg # of iterations =  1.6

     total cpu time spent up to now is      202.6 secs

     total energy              =   -1454.13073883 Ry
     estimated scf accuracy    <       0.00038501 Ry

     iteration # 31     ecut=    70.00 Ry     beta= 0.70
     Davidson diagonalization with overlap
     ethr =  9.17E-07,  avg # of iterations =  1.7

     total cpu time spent up to now is      208.1 secs

     total energy              =   -1454.13073704 Ry
     estimated scf accuracy    <       0.00026730 Ry

     iteration # 32     ecut=    70.00 Ry     beta= 0.70
     Davidson diagonalization with overlap
     c_bands:  1 eigenvalues not converged
     ethr =  6.36E-07,  avg # of iterations =  4.6

     total cpu time spent up to now is      214.2 secs

     total energy              =   -1454.13160000 Ry
     estimated scf accuracy    <       0.00144299 Ry

     iteration # 33     ecut=    70.00 Ry     beta= 0.70
     Davidson diagonalization with overlap
     ethr =  6.36E-07,  avg # of iterations =  2.9

     total cpu time spent up to now is      220.3 secs

     total energy              =   -1454.13155531 Ry
     estimated scf accuracy    <       0.00208692 Ry

     iteration # 34     ecut=    70.00 Ry     beta= 0.70
     Davidson diagonalization with overlap
     ethr =  6.36E-07,  avg # of iterations =  1.7

     total cpu time spent up to now is      225.8 secs

     total energy              =   -1454.13148713 Ry
     estimated scf accuracy    <       0.00202218 Ry

     iteration # 35     ecut=    70.00 Ry     beta= 0.70
     Davidson diagonalization with overlap
     ethr =  6.36E-07,  avg # of iterations =  1.3

     total cpu time spent up to now is      231.3 secs

     total energy              =   -1454.13149349 Ry
     estimated scf accuracy    <       0.00189360 Ry

     iteration # 36     ecut=    70.00 Ry     beta= 0.70
     Davidson diagonalization with overlap
     ethr =  6.36E-07,  avg # of iterations =  1.0

     total cpu time spent up to now is      236.7 secs

     total energy              =   -1454.13139003 Ry
     estimated scf accuracy    <       0.00190299 Ry

     iteration # 37     ecut=    70.00 Ry     beta= 0.70
     Davidson diagonalization with overlap
     ethr =  6.36E-07,  avg # of iterations =  1.2

     total cpu time spent up to now is      242.5 secs

     total energy              =   -1454.13127220 Ry
     estimated scf accuracy    <       0.00163842 Ry

     iteration # 38     ecut=    70.00 Ry     beta= 0.70
     Davidson diagonalization with overlap
     ethr =  6.36E-07,  avg # of iterations =  1.8

     total cpu time spent up to now is      248.2 secs

     total energy              =   -1454.13132295 Ry
     estimated scf accuracy    <       0.00125884 Ry

     iteration # 39     ecut=    70.00 Ry     beta= 0.70
     Davidson diagonalization with overlap
     ethr =  6.36E-07,  avg # of iterations =  1.1

     total cpu time spent up to now is      254.2 secs

     total energy              =   -1454.13139737 Ry
     estimated scf accuracy    <       0.00131937 Ry

     iteration # 40     ecut=    70.00 Ry     beta= 0.70
     Davidson diagonalization with overlap
     ethr =  6.36E-07,  avg # of iterations =  1.0

     total cpu time spent up to now is      259.8 secs

     total energy              =   -1454.13041726 Ry
     estimated scf accuracy    <       0.00147681 Ry

     iteration # 41     ecut=    70.00 Ry     beta= 0.70
     Davidson diagonalization with overlap
     c_bands:  1 eigenvalues not converged
     ethr =  6.36E-07,  avg # of iterations = 12.6

     total cpu time spent up to now is      270.8 secs

     total energy              =   -1454.13126329 Ry
     estimated scf accuracy    <       0.00262877 Ry

     iteration # 42     ecut=    70.00 Ry     beta= 0.70
     Davidson diagonalization with overlap
     c_bands:  1 eigenvalues not converged
     ethr =  6.36E-07,  avg # of iterations =  3.8

     total cpu time spent up to now is      277.6 secs

     total energy              =   -1454.13051908 Ry
     estimated scf accuracy    <       0.00185396 Ry

     iteration # 43     ecut=    70.00 Ry     beta= 0.70
     Davidson diagonalization with overlap
     ethr =  6.36E-07,  avg # of iterations = 11.7

     total cpu time spent up to now is      287.6 secs

     total energy              =   -1454.13101766 Ry
     estimated scf accuracy    <       0.00069497 Ry

     iteration # 44     ecut=    70.00 Ry     beta= 0.70
     Davidson diagonalization with overlap
     ethr =  6.36E-07,  avg # of iterations =  5.7

     total cpu time spent up to now is      294.7 secs

     total energy              =   -1454.13109582 Ry
     estimated scf accuracy    <       0.00003598 Ry

     iteration # 45     ecut=    70.00 Ry     beta= 0.70
     Davidson diagonalization with overlap
     ethr =  8.57E-08,  avg # of iterations =  6.7

     total cpu time spent up to now is      302.7 secs

     total energy              =   -1454.13110681 Ry
     estimated scf accuracy    <       0.00002541 Ry

     iteration # 46     ecut=    70.00 Ry     beta= 0.70
     Davidson diagonalization with overlap
     c_bands:  1 eigenvalues not converged
     ethr =  6.05E-08,  avg # of iterations =  8.2

     total cpu time spent up to now is      310.7 secs

     total energy              =   -1454.13110728 Ry
     estimated scf accuracy    <       0.00005059 Ry

     iteration # 47     ecut=    70.00 Ry     beta= 0.70
     Davidson diagonalization with overlap
     ethr =  6.05E-08,  avg # of iterations =  6.2

     total cpu time spent up to now is      317.4 secs

     total energy              =   -1454.13111678 Ry
     estimated scf accuracy    <       0.00000117 Ry

     iteration # 48     ecut=    70.00 Ry     beta= 0.70
     Davidson diagonalization with overlap
     c_bands:  1 eigenvalues not converged
     ethr =  2.79E-09,  avg # of iterations = 10.3

     total cpu time spent up to now is      326.9 secs

     total energy              =   -1454.13111948 Ry
     estimated scf accuracy    <       0.00001189 Ry

     iteration # 49     ecut=    70.00 Ry     beta= 0.70
     Davidson diagonalization with overlap
     ethr =  2.79E-09,  avg # of iterations =  1.6

     total cpu time spent up to now is      333.2 secs

     total energy              =   -1454.13111715 Ry
     estimated scf accuracy    <       0.00001018 Ry

     iteration # 50     ecut=    70.00 Ry     beta= 0.70
     Davidson diagonalization with overlap
     c_bands:  1 eigenvalues not converged
     ethr =  2.79E-09,  avg # of iterations =  7.6

     total cpu time spent up to now is      341.2 secs

     total energy              =   -1454.13111807 Ry
     estimated scf accuracy    <       0.00000129 Ry

     iteration # 51     ecut=    70.00 Ry     beta= 0.70
     Davidson diagonalization with overlap
     ethr =  2.79E-09,  avg # of iterations =  1.7

     total cpu time spent up to now is      347.1 secs

     total energy              =   -1454.13111814 Ry
     estimated scf accuracy    <       0.00000086 Ry

     iteration # 52     ecut=    70.00 Ry     beta= 0.70
     Davidson diagonalization with overlap
     ethr =  2.06E-09,  avg # of iterations =  2.0

     total cpu time spent up to now is      353.1 secs

     total energy              =   -1454.13111779 Ry
     estimated scf accuracy    <       0.00000092 Ry

     iteration # 53     ecut=    70.00 Ry     beta= 0.70
     Davidson diagonalization with overlap
     ethr =  2.06E-09,  avg # of iterations =  5.3

     total cpu time spent up to now is      359.8 secs

     End of self-consistent calculation

          k = 0.0000 0.0000 0.0000 (  5497 PWs)   bands (ev):

   -16.2192 -13.0200 -12.8722 -12.5668 -12.5213 -12.5213  -8.2342  -6.1209
    -2.4119  -1.4300  -1.3642  -1.3642   4.2862   4.2862   4.9484   4.9936
     8.0702   8.1445   8.1445   8.7620   9.7581

          k = 0.0000 0.0000 0.2000 (  5526 PWs)   bands (ev):

   -16.2083 -12.9805 -12.8466 -12.5704 -12.5249 -12.5213  -8.1294  -6.4038
    -2.7507  -1.3941  -1.3277  -1.1520   3.2627   4.2900   4.9990   6.5297
     7.9960   8.0877   8.1816   8.6335   9.4825

          k = 0.0000 0.0000 0.4000 (  5530 PWs)   bands (ev):

   -16.1906 -12.9458 -12.7720 -12.5760 -12.5305 -12.5211  -7.7669  -7.0816
    -3.0796  -1.3344  -1.2671  -1.0254   2.8259   4.2886   4.9910   7.0213
     7.9984   8.0043   8.3405   8.5084   9.2591

          k = 0.0000 0.2000 0.2000 (  5517 PWs)   bands (ev):

   -16.1977 -12.9793 -12.8238 -12.5702 -12.5278 -12.5246  -8.1109  -6.3941
    -2.8443  -1.3623  -1.2959  -1.1371   1.9762   4.3050   5.6675   6.9076
     7.7716   7.9603   8.1875   9.4956   9.5225

          k = 0.0000 0.2000 0.4000 (  5522 PWs)   bands (ev):

   -16.1818 -12.9404 -12.7517 -12.5757 -12.5327 -12.5243  -7.7311  -7.0674
    -3.1271  -1.3784  -1.2450  -1.0318   1.4470   4.3612   6.5013   7.0571
     7.6271   7.8478   8.3739   9.1803   9.2235

          k = 0.0000 0.4000 0.4000 (  5520 PWs)   bands (ev):

   -16.1675 -12.9335 -12.7167 -12.5753 -12.5361 -12.5296  -7.6813  -7.0234
    -3.2320  -1.4525  -1.2086  -0.9442   0.1526   4.4835   6.9432   7.4839
     7.6140   7.7115   8.5603   9.0426   9.8324

          k = 0.2000 0.2000 0.2000 (  5521 PWs)   bands (ev):

   -16.1885 -12.9247 -12.8111 -12.5733 -12.5281 -12.5275  -8.0116  -6.5951
    -3.0486  -1.3773  -1.3674  -1.0802   1.3151   5.3208   5.8958   6.8543
     7.7410   7.9168   8.3009   9.3206   9.7201

          k = 0.2000 0.2000 0.4000 (  5545 PWs)   bands (ev):

   -16.1735 -12.8706 -12.7515 -12.5785 -12.5330 -12.5278  -7.6806  -7.1226
    -3.3202  -1.4191  -1.3338  -1.2026   0.8773   5.6525   6.6630   6.9154
     7.6659   8.0080   8.3502   9.1873   9.4688

          k = 0.2000 0.4000 0.4000 (  5546 PWs)   bands (ev):

   -16.1597 -12.8637 -12.7156 -12.5790 -12.5375 -12.5332  -7.6297  -7.0838
    -3.1699  -1.5191  -1.3674  -1.1721  -0.5552   5.7966   7.1237   7.4199
     7.7018   8.0248   8.5313   9.4138   9.9187

          k = 0.4000 0.4000 0.4000 (  5562 PWs)   bands (ev):

   -16.1469 -12.7527 -12.7063 -12.5849 -12.5397 -12.5389  -7.4774  -7.2598
    -3.1156  -1.6199  -1.6047  -1.5566  -1.2196   7.2529   7.5263   7.6526
     7.7360   8.6348   8.6788   9.8928  10.0600

          k = 0.0000 0.2000 0.0000 (  5526 PWs)   bands (ev):

   -16.2075 -13.0196 -12.8496 -12.5668 -12.5248 -12.5248  -8.2238  -6.1164
    -2.5674  -1.3508  -1.3268  -1.3268   2.9143   4.2686   4.2686   6.9362
     7.8808   8.0320   8.0320   9.4234   9.7244

          k = 0.0000 0.4000 0.0000 (  5530 PWs)   bands (ev):

   -16.1884 -13.0189 -12.8132 -12.5666 -12.5303 -12.5303  -8.2034  -6.1090
    -2.7746  -1.3047  -1.2645  -1.2645   1.8404   4.2309   4.2309   7.1872
     7.6106   7.8788   7.8788   9.6705   9.6705

          k = 0.2000 0.0000 0.2000 (  5517 PWs)   bands (ev):

   -16.1983 -12.9250 -12.8354 -12.5734 -12.5248 -12.5245  -8.0356  -6.6078
    -3.0318  -1.3635  -1.3612  -1.1051   2.5181   5.0540   5.3168   6.7461
     7.8920   7.9916   8.3179   8.4849   9.5335

          k = 0.2000 0.4000 0.0000 (  5522 PWs)   bands (ev):

   -16.1804 -12.9777 -12.7866 -12.5699 -12.5326 -12.5301  -8.0780  -6.3763
    -2.9769  -1.3631  -1.2433  -1.1053   0.8903   4.3227   5.7893   7.1253
     7.6171   7.7828   8.0613   9.4098   9.7181

          k = 0.4000 0.0000 0.2000 (  5522 PWs)   bands (ev):

   -16.1820 -12.8770 -12.7713 -12.5782 -12.5302 -12.5244  -7.7140  -7.1403
    -3.3878  -1.3310  -1.3130  -1.1845   2.1494   5.1354   5.7764   6.8017
     7.8409   8.1534   8.2541   8.6131   9.3196

          k = 0.4000 0.0000 0.4000 (  5520 PWs)   bands (ev):

   -16.1679 -12.7776 -12.7532 -12.5818 -12.5298 -12.5298  -7.5490  -7.3151
    -3.9152  -1.3994  -1.3560  -1.2778   1.7144   5.4121   6.5332   7.4499
     7.6336   7.7752   8.6885   8.8139   9.3031

          k = 0.2000 0.4000 0.2000 (  5545 PWs)   bands (ev):

   -16.1725 -12.9241 -12.7715 -12.5734 -12.5339 -12.5318  -7.9696  -6.5744
    -3.0472  -1.4221  -1.3780  -1.0193   0.1075   5.3228   6.2522   7.1583
     7.6307   7.7834   8.1613   9.3768   9.8654

          k = 0.4000 0.2000 0.4000 (  5546 PWs)   bands (ev):

   -16.1599 -12.7530 -12.7506 -12.5830 -12.5336 -12.5333  -7.5221  -7.2942
    -3.7087  -1.4638  -1.4597  -1.3673   0.3843   6.7864   6.8730   7.4798
     7.6665   7.8189   8.6920   9.2448   9.5526

     highest occupied level (ev):    10.0600

!    total energy              =   -1454.13111800 Ry
     total all-electron energy =    -59743.674809 Ry
     estimated scf accuracy    <          7.9E-09 Ry

     The total energy is the sum of the following terms:
     one-electron contribution =     -70.29476897 Ry
     hartree contribution      =      66.50694136 Ry
     xc contribution           =     -73.55921496 Ry
     ewald contribution        =    -218.07286755 Ry
     one-center paw contrib.   =   -1158.71120787 Ry

     convergence has been achieved in  53 iterations

     Forces acting on atoms (cartesian axes, Ry/au):

     atom    1 type  1   force =     0.00000000    0.00000000    0.00000000
     atom    2 type  2   force =     0.00000000    0.00000000    0.00000000
     atom    3 type  4   force =     0.00000000    0.00000000    0.00000000
     atom    4 type  4   force =     0.00000000    0.00000000    0.00000000
     atom    5 type  3   force =     0.00000000    0.00000000    0.00000000

     Total force =     0.000000     Total SCF correction =     0.000000


     Computing stress (Cartesian axis) and pressure

          total   stress  (Ry/bohr**3)                   (kbar)     P=       11.61
   0.00014153   0.00000000   0.00000000           20.82        0.00        0.00
   0.00000000  -0.00004633   0.00000000            0.00       -6.82        0.00
   0.00000000   0.00000000   0.00014153            0.00        0.00       20.82


     init_run     :      4.57s CPU      5.00s WALL (       1 calls)
     electrons    :    309.35s CPU    353.61s WALL (       1 calls)
     forces       :      1.30s CPU      1.61s WALL (       1 calls)
     stress       :      7.73s CPU      8.90s WALL (       1 calls)

     Called by init_run:
     wfcinit      :      1.59s CPU      1.70s WALL (       1 calls)
     potinit      :      0.79s CPU      0.86s WALL (       1 calls)
     hinit0       :      1.57s CPU      1.64s WALL (       1 calls)

     Called by electrons:
     c_bands      :    188.37s CPU    201.50s WALL (      53 calls)
     sum_band     :     61.19s CPU     76.81s WALL (      53 calls)
     v_of_rho     :      5.73s CPU      6.13s WALL (      54 calls)
     newd         :     25.27s CPU     38.78s WALL (      54 calls)
     PAW_pot      :     28.21s CPU     29.82s WALL (      54 calls)
     mix_rho      :      1.09s CPU      1.17s WALL (      53 calls)

     Called by c_bands:
     init_us_2    :      5.27s CPU      5.67s WALL (    1962 calls)
     init_us_2:cp :      5.26s CPU      5.66s WALL (    1962 calls)
     cegterg      :    176.95s CPU    189.23s WALL (     954 calls)

     Called by *egterg:
     cdiaghg      :      3.96s CPU      4.26s WALL (    4654 calls)
     h_psi        :    144.24s CPU    154.30s WALL (    4672 calls)
     s_psi        :      6.97s CPU      7.43s WALL (    4672 calls)
     g_psi        :      0.77s CPU      0.81s WALL (    3700 calls)

     Called by h_psi:
     h_psi:calbec :      8.13s CPU      8.68s WALL (    4672 calls)
     vloc_psi     :    127.42s CPU    136.30s WALL (    4672 calls)
     add_vuspsi   :      7.94s CPU      8.51s WALL (    4672 calls)

     General routines
     calbec       :     10.75s CPU     11.47s WALL (    5716 calls)
     fft          :      3.16s CPU      3.41s WALL (     725 calls)
     ffts         :      0.28s CPU      0.30s WALL (     107 calls)
     fftw         :    136.53s CPU    146.02s WALL (  124486 calls)
     interpolate  :      0.46s CPU      0.51s WALL (      54 calls)

     Parallel routines

     PWSCF        :   5m24.06s CPU   6m10.29s WALL


   This run was terminated on:   7:28:54   6May2024            

=------------------------------------------------------------------------------=
   JOB DONE.
=------------------------------------------------------------------------------=
