
     Program PWSCF v.7.1 starts on  6May2024 at  8: 6:21 

     This program is part of the open-source Quantum ESPRESSO suite
     for quantum simulation of materials; please cite
         "P. Giannozzi et al., J. Phys.:Condens. Matter 21 395502 (2009);
         "P. Giannozzi et al., J. Phys.:Condens. Matter 29 465901 (2017);
         "P. Giannozzi et al., J. Chem. Phys. 152 154105 (2020);
          URL http://www.quantum-espresso.org", 
     in publications or presentations arising from this work. More details at
     http://www.quantum-espresso.org/quote

     Parallel version (MPI), running on     2 processors

     MPI processes distributed on     1 nodes
     13686 MiB available memory on the printing compute node when the environment starts

     Waiting for input...
     Reading input from standard input
Warning: card &CELL ignored
Warning: card / ignored

     Current dimensions of program PWSCF are:
     Max number of different atomic species (ntypx) = 10
     Max number of k-points (npk) =  40000
     Max angular momentum in pseudopotentials (lmaxx) =  4
     file Ba.pbe-spn-kjpaw_psl.1.0.0.UPF: wavefunction(s)  5S 6S renormalized
     file Bi.pbe-dn-kjpaw_psl.1.0.0.UPF: wavefunction(s)  6P 5D renormalized
     file N.pbe-n-kjpaw_psl.1.0.0.UPF: wavefunction(s)  2S renormalized
     file O.pbe-n-kjpaw_psl.1.0.0.UPF: wavefunction(s)  2S 2P renormalized
     Message from routine setup:
     using ibrav=0 with symmetry is DISCOURAGED, use correct ibrav instead

     R & G space division:  proc/nbgrp/npool/nimage =       2
     Subspace diagonalization in iterative solution of the eigenvalue problem:
     a serial algorithm will be used


     Parallelization info
     --------------------
     sticks:   dense  smooth     PW     G-vecs:    dense   smooth      PW
     Min        1566     782    218                66153    23374    3488
     Max        1567     783    219                66154    23379    3491
     Sum        3133    1565    437               132307    46753    6979

     Using Slab Decomposition



     bravais-lattice index     =            0
     lattice parameter (alat)  =       8.3904  a.u.
     unit-cell volume          =     590.6708 (a.u.)^3
     number of atoms/cell      =            5
     number of atomic types    =            4
     number of electrons       =        42.00
     number of Kohn-Sham states=           21
     kinetic-energy cutoff     =      70.0000  Ry
     charge density cutoff     =     560.0000  Ry
     scf convergence threshold =      1.0E-07
     mixing beta               =       0.7000
     number of iterations used =            8  plain     mixing
     Exchange-correlation= SLA  PW   PBX  PBC
                           (   1   4   3   4   0   0   0)

     celldm(1)=   8.390384  celldm(2)=   0.000000  celldm(3)=   0.000000
     celldm(4)=   0.000000  celldm(5)=   0.000000  celldm(6)=   0.000000

     crystal axes: (cart. coord. in units of alat)
               a(1) = (   1.000000   0.000000   0.000000 )  
               a(2) = (   0.000000   1.000000   0.000000 )  
               a(3) = (   0.000000   0.000000   1.000000 )  

     reciprocal axes: (cart. coord. in units 2 pi/alat)
               b(1) = (  1.000000  0.000000  0.000000 )  
               b(2) = (  0.000000  1.000000  0.000000 )  
               b(3) = (  0.000000  0.000000  1.000000 )  


     PseudoPot. # 1 for Ba read from file:
     /home/bond/Software/qe-7.1/pseudo/Ba.pbe-spn-kjpaw_psl.1.0.0.UPF
     MD5 check sum: 7cfe25f1fe7574a4710541d5a11d6531
     Pseudo is Projector augmented-wave + core cor, Zval = 10.0
     Generated using &quot;atomic&quot; code by A. Dal Corso  v.6.2.2
     Shape of augmentation charge: PSQ
     Using radial grid of 1251 points,  7 beta functions with: 
                l(1) =   0
                l(2) =   0
                l(3) =   0
                l(4) =   1
                l(5) =   1
                l(6) =   2
                l(7) =   2
     Q(r) pseudized with 0 coefficients 


     PseudoPot. # 2 for Bi read from file:
     /home/bond/Software/qe-7.1/pseudo/Bi.pbe-dn-kjpaw_psl.1.0.0.UPF
     MD5 check sum: 266ded784ae3bc462508ed03f0f37963
     Pseudo is Projector augmented-wave + core cor, Zval = 15.0
     Generated using &quot;atomic&quot; code by A. Dal Corso  v.6.2.2
     Shape of augmentation charge: PSQ
     Using radial grid of 1283 points,  6 beta functions with: 
                l(1) =   0
                l(2) =   0
                l(3) =   1
                l(4) =   1
                l(5) =   2
                l(6) =   2
     Q(r) pseudized with 0 coefficients 


     PseudoPot. # 3 for N  read from file:
     /home/bond/Software/qe-7.1/pseudo/N.pbe-n-kjpaw_psl.1.0.0.UPF
     MD5 check sum: 14c48229446f9f2d411169a3abcbc3fa
     Pseudo is Projector augmented-wave + core cor, Zval =  5.0
     Generated using &quot;atomic&quot; code by A. Dal Corso  v.6.3
     Shape of augmentation charge: PSQ
     Using radial grid of 1085 points,  4 beta functions with: 
                l(1) =   0
                l(2) =   0
                l(3) =   1
                l(4) =   1
     Q(r) pseudized with 0 coefficients 


     PseudoPot. # 4 for O  read from file:
     /home/bond/Software/qe-7.1/pseudo/O.pbe-n-kjpaw_psl.1.0.0.UPF
     MD5 check sum: e99d9cef9b487d1ca56f5b95ecd0fd7a
     Pseudo is Projector augmented-wave + core cor, Zval =  6.0
     Generated using &quot;atomic&quot; code by A. Dal Corso  v.6.3
     Shape of augmentation charge: PSQ
     Using radial grid of 1095 points,  4 beta functions with: 
                l(1) =   0
                l(2) =   0
                l(3) =   1
                l(4) =   1
     Q(r) pseudized with 0 coefficients 


     atomic species   valence    mass     pseudopotential
        Ba            10.00   137.32700     Ba( 1.00)
        Bi            15.00   208.98040     Bi( 1.00)
        N              5.00    14.00700     N ( 1.00)
        O              6.00    15.99900     O ( 1.00)

     16 Sym. Ops., with inversion, found



   Cartesian axes

     site n.     atom                  positions (alat units)
         1           Ba  tau(   1) = (   0.5000000   0.5000000   0.5000000  )
         2           Bi  tau(   2) = (   0.0000000   0.0000000   0.0000000  )
         3           O   tau(   3) = (   0.0000000   0.0000000   0.5000000  )
         4           O   tau(   4) = (   0.5000000   0.0000000   0.0000000  )
         5           N   tau(   5) = (   0.0000000   0.5000000   0.0000000  )

     number of k points=    18
                       cart. coord. in units 2pi/alat
        k(    1) = (   0.0000000   0.0000000   0.0000000), wk =   0.0160000
        k(    2) = (   0.0000000   0.0000000   0.2000000), wk =   0.0640000
        k(    3) = (   0.0000000   0.0000000   0.4000000), wk =   0.0640000
        k(    4) = (   0.0000000   0.2000000   0.2000000), wk =   0.1280000
        k(    5) = (   0.0000000   0.2000000   0.4000000), wk =   0.1280000
        k(    6) = (   0.0000000   0.4000000   0.4000000), wk =   0.1280000
        k(    7) = (   0.2000000   0.2000000   0.2000000), wk =   0.1280000
        k(    8) = (   0.2000000   0.2000000   0.4000000), wk =   0.2560000
        k(    9) = (   0.2000000   0.4000000   0.4000000), wk =   0.2560000
        k(   10) = (   0.4000000   0.4000000   0.4000000), wk =   0.1280000
        k(   11) = (   0.0000000   0.2000000   0.0000000), wk =   0.0320000
        k(   12) = (   0.0000000   0.4000000   0.0000000), wk =   0.0320000
        k(   13) = (   0.2000000   0.0000000   0.2000000), wk =   0.0640000
        k(   14) = (   0.2000000   0.4000000   0.0000000), wk =   0.1280000
        k(   15) = (   0.4000000   0.0000000   0.2000000), wk =   0.1280000
        k(   16) = (   0.4000000   0.0000000   0.4000000), wk =   0.0640000
        k(   17) = (   0.2000000   0.4000000   0.2000000), wk =   0.1280000
        k(   18) = (   0.4000000   0.2000000   0.4000000), wk =   0.1280000

     Dense  grid:   132307 G-vectors     FFT dimensions: (  64,  64,  64)

     Smooth grid:    46753 G-vectors     FFT dimensions: (  45,  45,  45)

     Estimated max dynamical RAM per process >     294.94 MB

     Estimated total dynamical RAM >     589.88 MB

     Initial potential from superposition of free atoms

     starting charge      41.9822, renormalised to      42.0000
     Starting wfcs are   26 randomized atomic wfcs
     Checking if some PAW data can be deallocated... 

     total cpu time spent up to now is        7.4 secs

     Self-consistent Calculation

     iteration #  1     ecut=    70.00 Ry     beta= 0.70
     Davidson diagonalization with overlap
     ethr =  1.00E-02,  avg # of iterations =  1.9

     total cpu time spent up to now is       14.3 secs

     total energy              =   -1453.12676706 Ry
     estimated scf accuracy    <       1.62967410 Ry

     iteration #  2     ecut=    70.00 Ry     beta= 0.70
     Davidson diagonalization with overlap
     ethr =  3.88E-03,  avg # of iterations =  5.9

     total cpu time spent up to now is       23.6 secs

     total energy              =   -1453.70262775 Ry
     estimated scf accuracy    <       2.71954120 Ry

     iteration #  3     ecut=    70.00 Ry     beta= 0.70
     Davidson diagonalization with overlap
     ethr =  3.88E-03,  avg # of iterations =  2.8

     total cpu time spent up to now is       31.1 secs

     total energy              =   -1453.85921895 Ry
     estimated scf accuracy    <       0.46627276 Ry

     iteration #  4     ecut=    70.00 Ry     beta= 0.70
     Davidson diagonalization with overlap
     ethr =  1.11E-03,  avg # of iterations =  5.7

     total cpu time spent up to now is       39.9 secs

     total energy              =   -1454.13062994 Ry
     estimated scf accuracy    <       0.06836385 Ry

     iteration #  5     ecut=    70.00 Ry     beta= 0.70
     Davidson diagonalization with overlap
     ethr =  1.63E-04,  avg # of iterations =  5.6

     total cpu time spent up to now is       48.1 secs

     total energy              =   -1454.13371280 Ry
     estimated scf accuracy    <       0.11385893 Ry

     iteration #  6     ecut=    70.00 Ry     beta= 0.70
     Davidson diagonalization with overlap
     ethr =  1.63E-04,  avg # of iterations =  1.3

     total cpu time spent up to now is       54.5 secs

     total energy              =   -1454.10658281 Ry
     estimated scf accuracy    <       0.06781708 Ry

     iteration #  7     ecut=    70.00 Ry     beta= 0.70
     Davidson diagonalization with overlap
     ethr =  1.61E-04,  avg # of iterations =  5.1

     total cpu time spent up to now is       62.4 secs

     total energy              =   -1454.12459865 Ry
     estimated scf accuracy    <       0.00172147 Ry

     iteration #  8     ecut=    70.00 Ry     beta= 0.70
     Davidson diagonalization with overlap
     c_bands:  2 eigenvalues not converged
     ethr =  4.10E-06,  avg # of iterations = 10.2

     total cpu time spent up to now is       73.6 secs

     total energy              =   -1454.13148246 Ry
     estimated scf accuracy    <       0.00879894 Ry

     iteration #  9     ecut=    70.00 Ry     beta= 0.70
     Davidson diagonalization with overlap
     c_bands:  1 eigenvalues not converged
     ethr =  4.10E-06,  avg # of iterations =  5.7

     total cpu time spent up to now is       82.0 secs

     total energy              =   -1454.12051765 Ry
     estimated scf accuracy    <       0.01802699 Ry

     iteration # 10     ecut=    70.00 Ry     beta= 0.70
     Davidson diagonalization with overlap
     c_bands:  2 eigenvalues not converged
     ethr =  4.10E-06,  avg # of iterations = 14.2

     total cpu time spent up to now is       95.7 secs

     total energy              =   -1454.13575656 Ry
     estimated scf accuracy    <       0.03122967 Ry

     iteration # 11     ecut=    70.00 Ry     beta= 0.70
     Davidson diagonalization with overlap
     ethr =  4.10E-06,  avg # of iterations =  2.1

     total cpu time spent up to now is      102.5 secs

     total energy              =   -1454.13245403 Ry
     estimated scf accuracy    <       0.03855496 Ry

     iteration # 12     ecut=    70.00 Ry     beta= 0.70
     Davidson diagonalization with overlap
     ethr =  4.10E-06,  avg # of iterations =  6.1

     total cpu time spent up to now is      111.3 secs

     total energy              =   -1454.13619333 Ry
     estimated scf accuracy    <       0.01938167 Ry

     iteration # 13     ecut=    70.00 Ry     beta= 0.70
     Davidson diagonalization with overlap
     ethr =  4.10E-06,  avg # of iterations =  2.0

     total cpu time spent up to now is      118.8 secs

     total energy              =   -1454.13249699 Ry
     estimated scf accuracy    <       0.02536456 Ry

     iteration # 14     ecut=    70.00 Ry     beta= 0.70
     Davidson diagonalization with overlap
     ethr =  4.10E-06,  avg # of iterations =  3.4

     total cpu time spent up to now is      126.6 secs

     total energy              =   -1454.12212870 Ry
     estimated scf accuracy    <       0.01663550 Ry

     iteration # 15     ecut=    70.00 Ry     beta= 0.70
     Davidson diagonalization with overlap
     ethr =  4.10E-06,  avg # of iterations = 13.8

     total cpu time spent up to now is      139.8 secs

     total energy              =   -1454.12953821 Ry
     estimated scf accuracy    <       0.04409961 Ry

     iteration # 16     ecut=    70.00 Ry     beta= 0.70
     Davidson diagonalization with overlap
     ethr =  4.10E-06,  avg # of iterations =  6.7

     total cpu time spent up to now is      149.0 secs

     total energy              =   -1454.13094482 Ry
     estimated scf accuracy    <       0.01537631 Ry

     iteration # 17     ecut=    70.00 Ry     beta= 0.70
     Davidson diagonalization with overlap
     ethr =  4.10E-06,  avg # of iterations =  1.2

     total cpu time spent up to now is      155.1 secs

     total energy              =   -1454.12937974 Ry
     estimated scf accuracy    <       0.01530413 Ry

     iteration # 18     ecut=    70.00 Ry     beta= 0.70
     Davidson diagonalization with overlap
     ethr =  4.10E-06,  avg # of iterations =  3.5

     total cpu time spent up to now is      162.2 secs

     total energy              =   -1454.12654911 Ry
     estimated scf accuracy    <       0.00908060 Ry

     iteration # 19     ecut=    70.00 Ry     beta= 0.70
     Davidson diagonalization with overlap
     c_bands:  1 eigenvalues not converged
     ethr =  4.10E-06,  avg # of iterations = 11.1

     total cpu time spent up to now is      173.0 secs

     total energy              =   -1454.12961278 Ry
     estimated scf accuracy    <       0.00251436 Ry

     iteration # 20     ecut=    70.00 Ry     beta= 0.70
     Davidson diagonalization with overlap
     ethr =  4.10E-06,  avg # of iterations =  6.3

     total cpu time spent up to now is      181.7 secs

     total energy              =   -1454.13019025 Ry
     estimated scf accuracy    <       0.00021098 Ry

     iteration # 21     ecut=    70.00 Ry     beta= 0.70
     Davidson diagonalization with overlap
     ethr =  5.02E-07,  avg # of iterations =  7.3

     total cpu time spent up to now is      191.4 secs

     total energy              =   -1454.13031434 Ry
     estimated scf accuracy    <       0.00052577 Ry

     iteration # 22     ecut=    70.00 Ry     beta= 0.70
     Davidson diagonalization with overlap
     ethr =  5.02E-07,  avg # of iterations =  1.5

     total cpu time spent up to now is      197.7 secs

     total energy              =   -1454.13026108 Ry
     estimated scf accuracy    <       0.00033289 Ry

     iteration # 23     ecut=    70.00 Ry     beta= 0.70
     Davidson diagonalization with overlap
     ethr =  5.02E-07,  avg # of iterations =  3.8

     total cpu time spent up to now is      205.2 secs

     total energy              =   -1454.13027036 Ry
     estimated scf accuracy    <       0.00008627 Ry

     iteration # 24     ecut=    70.00 Ry     beta= 0.70
     Davidson diagonalization with overlap
     ethr =  2.05E-07,  avg # of iterations =  6.7

     total cpu time spent up to now is      213.7 secs

     total energy              =   -1454.13030862 Ry
     estimated scf accuracy    <       0.00005061 Ry

     iteration # 25     ecut=    70.00 Ry     beta= 0.70
     Davidson diagonalization with overlap
     ethr =  1.20E-07,  avg # of iterations =  2.2

     total cpu time spent up to now is      220.3 secs

     total energy              =   -1454.13030220 Ry
     estimated scf accuracy    <       0.00005578 Ry

     iteration # 26     ecut=    70.00 Ry     beta= 0.70
     Davidson diagonalization with overlap
     ethr =  1.20E-07,  avg # of iterations =  1.7

     total cpu time spent up to now is      226.9 secs

     total energy              =   -1454.13029765 Ry
     estimated scf accuracy    <       0.00003906 Ry

     iteration # 27     ecut=    70.00 Ry     beta= 0.70
     Davidson diagonalization with overlap
     ethr =  9.30E-08,  avg # of iterations =  3.4

     total cpu time spent up to now is      234.6 secs

     total energy              =   -1454.13034908 Ry
     estimated scf accuracy    <       0.00002596 Ry

     iteration # 28     ecut=    70.00 Ry     beta= 0.70
     Davidson diagonalization with overlap
     c_bands:  1 eigenvalues not converged
     ethr =  6.18E-08,  avg # of iterations = 14.4

     total cpu time spent up to now is      248.2 secs

     total energy              =   -1454.13018612 Ry
     estimated scf accuracy    <       0.00165797 Ry

     iteration # 29     ecut=    70.00 Ry     beta= 0.70
     Davidson diagonalization with overlap
     ethr =  6.18E-08,  avg # of iterations = 12.5

     total cpu time spent up to now is      260.5 secs

     total energy              =   -1454.13026867 Ry
     estimated scf accuracy    <       0.00013265 Ry

     iteration # 30     ecut=    70.00 Ry     beta= 0.70
     Davidson diagonalization with overlap
     ethr =  6.18E-08,  avg # of iterations =  9.3

     total cpu time spent up to now is      270.5 secs

     total energy              =   -1454.13030440 Ry
     estimated scf accuracy    <       0.00001202 Ry

     iteration # 31     ecut=    70.00 Ry     beta= 0.70
     Davidson diagonalization with overlap
     ethr =  2.86E-08,  avg # of iterations =  7.6

     total cpu time spent up to now is      279.6 secs

     total energy              =   -1454.13033170 Ry
     estimated scf accuracy    <       0.00008689 Ry

     iteration # 32     ecut=    70.00 Ry     beta= 0.70
     Davidson diagonalization with overlap
     ethr =  2.86E-08,  avg # of iterations =  7.3

     total cpu time spent up to now is      288.5 secs

     total energy              =   -1454.13032133 Ry
     estimated scf accuracy    <       0.00021223 Ry

     iteration # 33     ecut=    70.00 Ry     beta= 0.70
     Davidson diagonalization with overlap
     ethr =  2.86E-08,  avg # of iterations =  1.6

     total cpu time spent up to now is      295.3 secs

     total energy              =   -1454.13027475 Ry
     estimated scf accuracy    <       0.00017938 Ry

     iteration # 34     ecut=    70.00 Ry     beta= 0.70
     Davidson diagonalization with overlap
     ethr =  2.86E-08,  avg # of iterations = 10.6

     total cpu time spent up to now is      306.5 secs

     total energy              =   -1454.13029452 Ry
     estimated scf accuracy    <       0.00000515 Ry

     iteration # 35     ecut=    70.00 Ry     beta= 0.70
     Davidson diagonalization with overlap
     ethr =  1.23E-08,  avg # of iterations =  5.7

     total cpu time spent up to now is      314.3 secs

     End of self-consistent calculation

          k = 0.0000 0.0000 0.0000 (  5743 PWs)   bands (ev):

   -17.1471 -13.5829 -13.4700 -13.2263 -13.1901 -13.1901  -8.6336  -6.7904
    -3.2031  -2.3117  -2.2679  -2.2679   3.7763   3.8434   3.8434   4.4278
     7.5044   7.5709   7.5709   8.0869   8.9412

          k = 0.0000 0.0000 0.2000 (  5806 PWs)   bands (ev):

   -17.1393 -13.5509 -13.4496 -13.2291 -13.1928 -13.1900  -8.5328  -7.0256
    -3.4984  -2.2850  -2.2406  -2.0873   2.4557   3.8543   4.4434   5.7257
     7.4304   7.5121   7.5574   7.9702   8.6852

          k = 0.0000 0.0000 0.4000 (  5822 PWs)   bands (ev):

   -17.1265 -13.5239 -13.3889 -13.2334 -13.1972 -13.1899  -8.1992  -7.5977
    -3.8002  -2.2409  -2.1956  -1.9686   1.9373   3.8667   4.4579   6.4497
     7.4105   7.4232   7.7106   7.8030   8.5069

          k = 0.0000 0.2000 0.2000 (  5836 PWs)   bands (ev):

   -17.1317 -13.5498 -13.4299 -13.2290 -13.1953 -13.1927  -8.5148  -7.0176
    -3.5616  -2.2644  -2.2171  -2.0736   1.2471   3.8771   5.0848   6.2206
     7.2071   7.3995   7.5831   8.6413   8.7017

          k = 0.0000 0.2000 0.4000 (  5843 PWs)   bands (ev):

   -17.1200 -13.5187 -13.3721 -13.2332 -13.1990 -13.1925  -8.1675  -7.5857
    -3.8256  -2.2773  -2.1787  -1.9640   0.6991   3.9384   5.8631   6.4714
     7.0481   7.2857   7.7240   8.4259   8.4818

          k = 0.0000 0.4000 0.4000 (  5862 PWs)   bands (ev):

   -17.1094 -13.5123 -13.3428 -13.2329 -13.2021 -13.1967  -8.1227  -7.5506
    -3.8826  -2.3384  -2.1510  -1.8811  -0.5267   4.0599   6.3665   6.8753
     7.0796   7.1049   7.8479   8.2842   9.0455

          k = 0.2000 0.2000 0.2000 (  5848 PWs)   bands (ev):

   -17.1248 -13.5054 -13.4202 -13.2315 -13.1954 -13.1950  -8.4207  -7.1870
    -3.7310  -2.2782  -2.2753  -2.0238   0.6409   4.8108   5.2900   6.2266
     7.1784   7.2915   7.7146   8.5547   8.7820

          k = 0.2000 0.2000 0.4000 (  5823 PWs)   bands (ev):

   -17.1137 -13.4629 -13.3719 -13.2354 -13.1992 -13.1952  -8.1190  -7.6327
    -3.9661  -2.3118  -2.2437  -2.1135   0.1730   5.1057   6.0195   6.3637
     7.0711   7.3746   7.7367   8.4423   8.6835

          k = 0.2000 0.4000 0.4000 (  5836 PWs)   bands (ev):

   -17.1035 -13.4564 -13.3421 -13.2357 -13.2029 -13.1995  -8.0746  -7.6009
    -3.8183  -2.3905  -2.2759  -2.0496  -1.1782   5.2518   6.5385   6.8178
     7.0750   7.4077   7.8400   8.6397   9.1137

          k = 0.4000 0.4000 0.4000 (  5842 PWs)   bands (ev):

   -17.0939 -13.3680 -13.3355 -13.2402 -13.2043 -13.2038  -7.9364  -7.7483
    -3.7342  -2.4639  -2.4334  -2.3672  -1.8734   6.6624   6.8848   7.0047
     7.0907   7.8537   8.0727   9.0835   9.2265

          k = 0.0000 0.2000 0.0000 (  5806 PWs)   bands (ev):

   -17.1388 -13.5827 -13.4502 -13.2263 -13.1928 -13.1928  -8.6219  -6.7866
    -3.3133  -2.2554  -2.2405  -2.2405   2.0590   3.8386   3.8386   6.1886
     7.3282   7.4711   7.4711   8.5771   8.8997

          k = 0.0000 0.4000 0.0000 (  5822 PWs)   bands (ev):

   -17.1253 -13.5823 -13.4180 -13.2261 -13.1972 -13.1972  -8.6003  -6.7804
    -3.4587  -2.2223  -2.1953  -2.1953   0.9917   3.8243   3.8243   6.5889
     7.0764   7.3338   7.3338   8.8329   8.8329

          k = 0.2000 0.0000 0.2000 (  5836 PWs)   bands (ev):

   -17.1319 -13.5056 -13.4412 -13.2315 -13.1928 -13.1927  -8.4428  -7.1976
    -3.7286  -2.2728  -2.2620  -2.0465   1.7570   4.4996   4.7978   6.0199
     7.3103   7.3331   7.7351   7.8352   8.7119

          k = 0.2000 0.4000 0.0000 (  5843 PWs)   bands (ev):

   -17.1193 -13.5485 -13.3975 -13.2287 -13.1991 -13.1970  -8.4835  -7.0030
    -3.6470  -2.2678  -2.1785  -2.0437   0.1807   3.9100   5.2091   6.5362
     7.0560   7.2415   7.4752   8.6067   8.9063

          k = 0.4000 0.0000 0.2000 (  5843 PWs)   bands (ev):

   -17.1200 -13.4692 -13.3880 -13.2353 -13.1970 -13.1925  -8.1481  -7.6477
    -4.0348  -2.2491  -2.2243  -2.1069   1.3301   4.5880   5.2024   6.2688
     7.2709   7.5403   7.6049   7.9242   8.5331

          k = 0.4000 0.0000 0.4000 (  5862 PWs)   bands (ev):

   -17.1095 -13.3958 -13.3683 -13.2383 -13.1967 -13.1967  -7.9973  -7.7956
    -4.4532  -2.3089  -2.2661  -2.1971   0.8821   4.8345   6.0358   6.7997
     7.0840   7.2027   8.0104   8.0799   8.4855

          k = 0.2000 0.4000 0.2000 (  5823 PWs)   bands (ev):

   -17.1133 -13.5049 -13.3859 -13.2314 -13.1999 -13.1985  -8.3826  -7.1696
    -3.7087  -2.3134  -2.2874  -1.9671  -0.5115   4.8280   5.6264   6.5670
     7.0485   7.1889   7.5909   8.6037   9.0342

          k = 0.4000 0.2000 0.4000 (  5836 PWs)   bands (ev):

   -17.1036 -13.3728 -13.3682 -13.2390 -13.1996 -13.1994  -7.9744  -7.7777
    -4.2601  -2.3565  -2.3444  -2.2693  -0.3110   6.1832   6.2649   6.8311
     7.0808   7.1771   8.0807   8.4527   8.7377

     highest occupied level (ev):     9.2265

!    total energy              =   -1454.13029620 Ry
     total all-electron energy =    -59743.673987 Ry
     estimated scf accuracy    <       0.00000005 Ry

     The total energy is the sum of the following terms:
     one-electron contribution =     -76.16010496 Ry
     hartree contribution      =      68.27415306 Ry
     xc contribution           =     -73.39706349 Ry
     ewald contribution        =    -214.14362669 Ry
     one-center paw contrib.   =   -1158.70365413 Ry

     convergence has been achieved in  35 iterations

     Forces acting on atoms (cartesian axes, Ry/au):

     atom    1 type  1   force =     0.00000000    0.00000000    0.00000000
     atom    2 type  2   force =     0.00000000    0.00000000    0.00000000
     atom    3 type  4   force =     0.00000000    0.00000000    0.00000000
     atom    4 type  4   force =     0.00000000    0.00000000    0.00000000
     atom    5 type  3   force =     0.00000000    0.00000000    0.00000000

     Total force =     0.000000     Total SCF correction =     0.000000


     Computing stress (Cartesian axis) and pressure

          total   stress  (Ry/bohr**3)                   (kbar)     P=      -29.52
  -0.00018145   0.00000000   0.00000000          -26.69        0.00        0.00
   0.00000000  -0.00023919   0.00000000            0.00      -35.19        0.00
   0.00000000   0.00000000  -0.00018145            0.00        0.00      -26.69


     init_run     :      4.74s CPU      6.03s WALL (       1 calls)
     electrons    :    271.60s CPU    306.96s WALL (       1 calls)
     forces       :      1.51s CPU      1.79s WALL (       1 calls)
     stress       :      8.56s CPU      9.78s WALL (       1 calls)

     Called by init_run:
     wfcinit      :      1.67s CPU      1.97s WALL (       1 calls)
     potinit      :      0.86s CPU      1.10s WALL (       1 calls)
     hinit0       :      1.52s CPU      1.80s WALL (       1 calls)

     Called by electrons:
     c_bands      :    179.38s CPU    193.43s WALL (      35 calls)
     sum_band     :     48.14s CPU     59.15s WALL (      35 calls)
     v_of_rho     :      4.41s CPU      4.74s WALL (      36 calls)
     newd         :     19.98s CPU     29.06s WALL (      36 calls)
     PAW_pot      :     19.59s CPU     20.93s WALL (      36 calls)
     mix_rho      :      0.86s CPU      0.92s WALL (      35 calls)

     Called by c_bands:
     init_us_2    :      3.74s CPU      4.03s WALL (    1314 calls)
     init_us_2:cp :      3.73s CPU      4.03s WALL (    1314 calls)
     cegterg      :    170.97s CPU    184.35s WALL (     630 calls)

     Called by *egterg:
     cdiaghg      :      3.89s CPU      4.14s WALL (    4406 calls)
     h_psi        :    135.62s CPU    146.38s WALL (    4424 calls)
     s_psi        :      6.58s CPU      7.18s WALL (    4424 calls)
     g_psi        :      0.75s CPU      0.83s WALL (    3776 calls)

     Called by h_psi:
     h_psi:calbec :      8.35s CPU      9.02s WALL (    4424 calls)
     vloc_psi     :    119.26s CPU    128.72s WALL (    4424 calls)
     add_vuspsi   :      7.37s CPU      7.95s WALL (    4424 calls)

     General routines
     calbec       :     10.64s CPU     11.49s WALL (    5144 calls)
     fft          :      2.75s CPU      3.01s WALL (     491 calls)
     ffts         :      0.25s CPU      0.28s WALL (      71 calls)
     fftw         :    125.54s CPU    135.54s WALL (   98208 calls)
     interpolate  :      0.37s CPU      0.41s WALL (      36 calls)

     Parallel routines

     PWSCF        :   4m47.50s CPU   5m25.91s WALL


   This run was terminated on:   8:11:47   6May2024            

=------------------------------------------------------------------------------=
   JOB DONE.
=------------------------------------------------------------------------------=
