
     Program PWSCF v.7.1 starts on  6May2024 at  1:23:31 

     This program is part of the open-source Quantum ESPRESSO suite
     for quantum simulation of materials; please cite
         "P. Giannozzi et al., J. Phys.:Condens. Matter 21 395502 (2009);
         "P. Giannozzi et al., J. Phys.:Condens. Matter 29 465901 (2017);
         "P. Giannozzi et al., J. Chem. Phys. 152 154105 (2020);
          URL http://www.quantum-espresso.org", 
     in publications or presentations arising from this work. More details at
     http://www.quantum-espresso.org/quote

     Parallel version (MPI), running on     2 processors

     MPI processes distributed on     1 nodes
     13558 MiB available memory on the printing compute node when the environment starts

     Waiting for input...
     Reading input from standard input
Warning: card &CELL ignored
Warning: card / ignored

     Current dimensions of program PWSCF are:
     Max number of different atomic species (ntypx) = 10
     Max number of k-points (npk) =  40000
     Max angular momentum in pseudopotentials (lmaxx) =  4
     file Ba.pbe-spn-kjpaw_psl.1.0.0.UPF: wavefunction(s)  5S 6S renormalized
     file Bi.pbe-dn-kjpaw_psl.1.0.0.UPF: wavefunction(s)  6P 5D renormalized
     file O.pbe-n-kjpaw_psl.1.0.0.UPF: wavefunction(s)  2S 2P renormalized
     Message from routine setup:
     using ibrav=0 with symmetry is DISCOURAGED, use correct ibrav instead

     R & G space division:  proc/nbgrp/npool/nimage =       2
     Subspace diagonalization in iterative solution of the eigenvalue problem:
     a serial algorithm will be used


     Parallelization info
     --------------------
     sticks:   dense  smooth     PW     G-vecs:    dense   smooth      PW
     Min        1562     782    219                65744    23290    3576
     Max        1563     783    222                65747    23295    3577
     Sum        3125    1565    441               131491    46585    7153

     Using Slab Decomposition



     bravais-lattice index     =            0
     lattice parameter (alat)  =       8.3715  a.u.
     unit-cell volume          =     586.6888 (a.u.)^3
     number of atoms/cell      =            5
     number of atomic types    =            3
     number of electrons       =        43.00
     number of Kohn-Sham states=           26
     kinetic-energy cutoff     =      70.0000  Ry
     charge density cutoff     =     560.0000  Ry
     scf convergence threshold =      1.0E-07
     mixing beta               =       0.7000
     number of iterations used =            8  plain     mixing
     Exchange-correlation= SLA  PW   PBX  PBC
                           (   1   4   3   4   0   0   0)

     celldm(1)=   8.371487  celldm(2)=   0.000000  celldm(3)=   0.000000
     celldm(4)=   0.000000  celldm(5)=   0.000000  celldm(6)=   0.000000

     crystal axes: (cart. coord. in units of alat)
               a(1) = (   1.000000   0.000000   0.000000 )  
               a(2) = (   0.000000   1.000000   0.000000 )  
               a(3) = (   0.000000   0.000000   1.000000 )  

     reciprocal axes: (cart. coord. in units 2 pi/alat)
               b(1) = (  1.000000  0.000000  0.000000 )  
               b(2) = (  0.000000  1.000000  0.000000 )  
               b(3) = (  0.000000  0.000000  1.000000 )  


     PseudoPot. # 1 for Ba read from file:
     /home/bond/Software/qe-7.1/pseudo/Ba.pbe-spn-kjpaw_psl.1.0.0.UPF
     MD5 check sum: 7cfe25f1fe7574a4710541d5a11d6531
     Pseudo is Projector augmented-wave + core cor, Zval = 10.0
     Generated using &quot;atomic&quot; code by A. Dal Corso  v.6.2.2
     Shape of augmentation charge: PSQ
     Using radial grid of 1251 points,  7 beta functions with: 
                l(1) =   0
                l(2) =   0
                l(3) =   0
                l(4) =   1
                l(5) =   1
                l(6) =   2
                l(7) =   2
     Q(r) pseudized with 0 coefficients 


     PseudoPot. # 2 for Bi read from file:
     /home/bond/Software/qe-7.1/pseudo/Bi.pbe-dn-kjpaw_psl.1.0.0.UPF
     MD5 check sum: 266ded784ae3bc462508ed03f0f37963
     Pseudo is Projector augmented-wave + core cor, Zval = 15.0
     Generated using &quot;atomic&quot; code by A. Dal Corso  v.6.2.2
     Shape of augmentation charge: PSQ
     Using radial grid of 1283 points,  6 beta functions with: 
                l(1) =   0
                l(2) =   0
                l(3) =   1
                l(4) =   1
                l(5) =   2
                l(6) =   2
     Q(r) pseudized with 0 coefficients 


     PseudoPot. # 3 for O  read from file:
     /home/bond/Software/qe-7.1/pseudo/O.pbe-n-kjpaw_psl.1.0.0.UPF
     MD5 check sum: e99d9cef9b487d1ca56f5b95ecd0fd7a
     Pseudo is Projector augmented-wave + core cor, Zval =  6.0
     Generated using &quot;atomic&quot; code by A. Dal Corso  v.6.3
     Shape of augmentation charge: PSQ
     Using radial grid of 1095 points,  4 beta functions with: 
                l(1) =   0
                l(2) =   0
                l(3) =   1
                l(4) =   1
     Q(r) pseudized with 0 coefficients 


     atomic species   valence    mass     pseudopotential
        Ba            10.00   137.32700     Ba( 1.00)
        Bi            15.00   208.98040     Bi( 1.00)
        O              6.00    15.99900     O ( 1.00)

     48 Sym. Ops., with inversion, found



   Cartesian axes

     site n.     atom                  positions (alat units)
         1           Ba  tau(   1) = (   0.5000000   0.5000000   0.5000000  )
         2           Bi  tau(   2) = (   0.0000000   0.0000000   0.0000000  )
         3           O   tau(   3) = (   0.0000000   0.0000000   0.5000000  )
         4           O   tau(   4) = (   0.5000000   0.0000000   0.0000000  )
         5           O   tau(   5) = (   0.0000000   0.5000000   0.0000000  )

     number of k points=    10  Methfessel-Paxton smearing, width (Ry)=  0.0200
                       cart. coord. in units 2pi/alat
        k(    1) = (   0.0000000   0.0000000   0.0000000), wk =   0.0312500
        k(    2) = (   0.0000000   0.0000000   0.2500000), wk =   0.1875000
        k(    3) = (   0.0000000   0.0000000  -0.5000000), wk =   0.0937500
        k(    4) = (   0.0000000   0.2500000   0.2500000), wk =   0.3750000
        k(    5) = (   0.0000000   0.2500000  -0.5000000), wk =   0.3750000
        k(    6) = (   0.0000000  -0.5000000  -0.5000000), wk =   0.0937500
        k(    7) = (   0.2500000   0.2500000   0.2500000), wk =   0.2500000
        k(    8) = (   0.2500000   0.2500000  -0.5000000), wk =   0.3750000
        k(    9) = (   0.2500000  -0.5000000  -0.5000000), wk =   0.1875000
        k(   10) = (  -0.5000000  -0.5000000  -0.5000000), wk =   0.0312500

     Dense  grid:   131491 G-vectors     FFT dimensions: (  64,  64,  64)

     Smooth grid:    46585 G-vectors     FFT dimensions: (  45,  45,  45)

     Estimated max dynamical RAM per process >     283.68 MB

     Estimated total dynamical RAM >     567.36 MB

     Initial potential from superposition of free atoms

     starting charge      42.9822, renormalised to      43.0000
     Starting wfcs are   26 randomized atomic wfcs
     Checking if some PAW data can be deallocated... 

     total cpu time spent up to now is        5.2 secs

     Self-consistent Calculation

     iteration #  1     ecut=    70.00 Ry     beta= 0.70
     Davidson diagonalization with overlap
     ethr =  1.00E-02,  avg # of iterations =  2.8

     total cpu time spent up to now is        9.9 secs

     total energy              =   -1466.66368456 Ry
     estimated scf accuracy    <       1.74352905 Ry

     iteration #  2     ecut=    70.00 Ry     beta= 0.70
     Davidson diagonalization with overlap
     ethr =  4.05E-03,  avg # of iterations =  6.5

     total cpu time spent up to now is       15.9 secs

     total energy              =   -1467.08519709 Ry
     estimated scf accuracy    <       4.14578907 Ry

     iteration #  3     ecut=    70.00 Ry     beta= 0.70
     Davidson diagonalization with overlap
     ethr =  4.05E-03,  avg # of iterations =  2.2
     Minimization algorithm failed to find Fermi energy: reverting to bisection
     Possible cause: smearing is larger than the electronic band-gap.

     total cpu time spent up to now is       20.8 secs

     total energy              =   -1467.34302149 Ry
     estimated scf accuracy    <       0.45893639 Ry

     iteration #  4     ecut=    70.00 Ry     beta= 0.70
     Davidson diagonalization with overlap
     ethr =  1.07E-03,  avg # of iterations =  5.8

     total cpu time spent up to now is       26.5 secs

     total energy              =   -1467.78024873 Ry
     estimated scf accuracy    <       0.31218134 Ry

     iteration #  5     ecut=    70.00 Ry     beta= 0.70
     Davidson diagonalization with overlap
     ethr =  7.26E-04,  avg # of iterations =  1.6

     total cpu time spent up to now is       30.9 secs

     total energy              =   -1467.73746185 Ry
     estimated scf accuracy    <       0.12420801 Ry

     iteration #  6     ecut=    70.00 Ry     beta= 0.70
     Davidson diagonalization with overlap
     ethr =  2.89E-04,  avg # of iterations =  7.3

     total cpu time spent up to now is       36.5 secs

     total energy              =   -1467.77239943 Ry
     estimated scf accuracy    <       0.00038572 Ry

     iteration #  7     ecut=    70.00 Ry     beta= 0.70
     Davidson diagonalization with overlap
     c_bands:  1 eigenvalues not converged
     c_bands:  1 eigenvalues not converged
     c_bands:  1 eigenvalues not converged
     c_bands:  1 eigenvalues not converged
     ethr =  8.97E-07,  avg # of iterations = 16.9

     total cpu time spent up to now is       46.4 secs

     total energy              =   -1467.77531546 Ry
     estimated scf accuracy    <       0.02405601 Ry

     iteration #  8     ecut=    70.00 Ry     beta= 0.70
     Davidson diagonalization with overlap
     c_bands:  1 eigenvalues not converged
     ethr =  8.97E-07,  avg # of iterations =  9.4

     total cpu time spent up to now is       53.5 secs

     total energy              =   -1467.77558460 Ry
     estimated scf accuracy    <       0.00342644 Ry

     iteration #  9     ecut=    70.00 Ry     beta= 0.70
     Davidson diagonalization with overlap
     ethr =  8.97E-07,  avg # of iterations =  5.7

     total cpu time spent up to now is       59.9 secs

     total energy              =   -1467.77627643 Ry
     estimated scf accuracy    <       0.00000939 Ry

     iteration # 10     ecut=    70.00 Ry     beta= 0.70
     Davidson diagonalization with overlap
     ethr =  2.18E-08,  avg # of iterations =  7.3

     total cpu time spent up to now is       66.1 secs

     total energy              =   -1467.77626851 Ry
     estimated scf accuracy    <       0.00003960 Ry

     iteration # 11     ecut=    70.00 Ry     beta= 0.70
     Davidson diagonalization with overlap
     ethr =  2.18E-08,  avg # of iterations =  5.0

     total cpu time spent up to now is       72.5 secs

     total energy              =   -1467.77628144 Ry
     estimated scf accuracy    <       0.00000264 Ry

     iteration # 12     ecut=    70.00 Ry     beta= 0.70
     Davidson diagonalization with overlap
     ethr =  6.13E-09,  avg # of iterations =  5.3

     total cpu time spent up to now is       78.2 secs

     total energy              =   -1467.77627712 Ry
     estimated scf accuracy    <       0.00001476 Ry

     iteration # 13     ecut=    70.00 Ry     beta= 0.70
     Davidson diagonalization with overlap
     ethr =  6.13E-09,  avg # of iterations =  5.1

     total cpu time spent up to now is       83.7 secs

     total energy              =   -1467.77627875 Ry
     estimated scf accuracy    <       0.00000049 Ry

     iteration # 14     ecut=    70.00 Ry     beta= 0.70
     Davidson diagonalization with overlap
     ethr =  1.14E-09,  avg # of iterations =  5.3

     total cpu time spent up to now is       89.1 secs

     End of self-consistent calculation

          k = 0.0000 0.0000 0.0000 (  5743 PWs)   bands (ev):

   -17.3303 -13.1728 -13.1728 -12.7932 -12.7932 -12.7932  -8.8766  -6.5559
    -6.5559  -2.4407  -2.4407  -2.4407   3.2131   4.0380   4.0380   4.0380
     7.6412   7.6412   7.6412   7.8613   7.8613   7.8613  12.9883  12.9884
    14.0282  14.9178

          k = 0.0000 0.0000 0.2500 (  5790 PWs)   bands (ev):

   -17.3185 -13.1724 -13.0940 -12.7974 -12.7974 -12.7931  -8.7231  -7.0174
    -6.5500  -2.4029  -2.4029  -2.3824   1.6695   4.0473   4.0473   6.0267
     7.3759   7.5267   7.5267   7.7451   7.7451   8.2106  13.6499  13.6680
    15.0415  15.0584

          k = 0.0000 0.0000-0.5000 (  5846 PWs)   bands (ev):

   -17.3065 -13.1720 -13.0128 -12.8017 -12.8017 -12.7929  -8.3990  -7.6416
    -6.5441  -2.3643  -2.3643  -2.3414   1.0690   4.0494   4.0494   6.3984
     7.1459   7.4865   7.4865   7.5795   7.5795   9.7619  14.1337  14.3490
    15.2151  15.8104

          k = 0.0000 0.2500 0.2500 (  5812 PWs)   bands (ev):

   -17.3080 -13.1341 -13.0498 -12.8010 -12.7973 -12.7971  -8.5645  -7.1590
    -6.8096  -2.4480  -2.3728  -2.3592   0.5973   4.1216   5.4429   6.1398
     7.0243   7.3893   7.5893   7.6595   8.0291   8.6681  14.0124  14.4379
    15.1061  15.4696

          k = 0.0000 0.2500-0.5000 (  5778 PWs)   bands (ev):

   -17.2974 -13.1235 -12.9747 -12.8044 -12.8012 -12.7969  -8.2136  -7.6731
    -6.8921  -2.4251  -2.4152  -2.3423   0.0290   4.1956   5.8493   6.2734
     7.1117   7.3359   7.3654   7.5990   8.0308  10.1720  14.3138  14.8009
    15.0697  15.6177

          k = 0.0000-0.5000-0.5000 (  5824 PWs)   bands (ev):

   -17.2882 -13.0968 -12.9116 -12.8073 -12.8009 -12.8009  -7.7049  -7.7049
    -7.5782  -2.4820  -2.4820  -2.3201  -0.5642   4.3591   6.0965   7.1661
     7.1661   7.2650   7.2650   7.6195   8.3660  11.3164  14.1833  14.1833
    14.6844  15.0983

          k = 0.2500 0.2500 0.2500 (  5830 PWs)   bands (ev):

   -17.2983 -13.0494 -13.0494 -12.8015 -12.8015 -12.8003  -8.4154  -7.1378
    -7.1378  -2.4775  -2.4775  -2.3339  -0.3407   5.5097   5.5097   6.2091
     7.0511   7.0511   7.9419   7.9419   8.0104   9.0032  14.2795  14.2796
    14.8578  15.3448

          k = 0.2500 0.2500-0.5000 (  5784 PWs)   bands (ev):

   -17.2886 -13.0489 -12.9612 -12.8058 -12.8041 -12.8012  -8.0698  -7.6733
    -7.1163  -2.5076  -2.4931  -2.4042  -0.9189   5.5750   6.2517   6.4245
     6.9160   7.2126   7.7774   7.8655   8.1305  10.4536  13.6006  14.2782
    14.7714  15.2404

          k = 0.2500-0.5000-0.5000 (  5812 PWs)   bands (ev):

   -17.2798 -13.0064 -12.9115 -12.8087 -12.8055 -12.8055  -7.6741  -7.6741
    -7.6080  -2.5635  -2.5635  -2.4874  -1.5496   6.0396   6.5023   6.9393
     6.9393   7.6249   7.8938   7.8938   8.3911  11.5315  13.0710  13.0710
    13.8516  15.6763

          k =-0.5000-0.5000-0.5000 (  5832 PWs)   bands (ev):

   -17.2713 -12.9115 -12.9115 -12.8102 -12.8102 -12.8102  -7.6426  -7.6426
    -7.6426  -2.6445  -2.6445  -2.6445  -2.2561   6.9077   6.9077   6.9077
     7.6303   7.6303   8.4167   8.4167   8.4167  12.1823  12.1823  12.1823
    12.6820  16.6897

     the Fermi energy is    10.0628 ev

!    total energy              =   -1467.77627895 Ry
     total all-electron energy =    -59784.868062 Ry
     estimated scf accuracy    <       0.00000005 Ry
     smearing contrib. (-TS)   =      -0.00007766 Ry
     internal energy E=F+TS    =   -1467.77620129 Ry

     The total energy is F=E-TS. E is the sum of the following terms:
     one-electron contribution =     -84.13049096 Ry
     hartree contribution      =      73.69848432 Ry
     xc contribution           =     -75.27300249 Ry
     ewald contribution        =    -221.76066282 Ry
     one-center paw contrib.   =   -1160.31052935 Ry

     convergence has been achieved in  14 iterations

     Forces acting on atoms (cartesian axes, Ry/au):

     atom    1 type  1   force =     0.00000000    0.00000000    0.00000000
     atom    2 type  2   force =     0.00000000    0.00000000    0.00000000
     atom    3 type  3   force =     0.00000000    0.00000000    0.00000000
     atom    4 type  3   force =     0.00000000    0.00000000    0.00000000
     atom    5 type  3   force =     0.00000000    0.00000000    0.00000000

     Total force =     0.000000     Total SCF correction =     0.000000


     Computing stress (Cartesian axis) and pressure

          total   stress  (Ry/bohr**3)                   (kbar)     P=       -6.91
  -0.00004700   0.00000000   0.00000000           -6.91        0.00        0.00
   0.00000000  -0.00004700   0.00000000            0.00       -6.91        0.00
   0.00000000   0.00000000  -0.00004700            0.00        0.00       -6.91


     init_run     :      3.70s CPU      4.13s WALL (       1 calls)
     electrons    :     75.71s CPU     83.93s WALL (       1 calls)
     forces       :      1.19s CPU      1.35s WALL (       1 calls)
     stress       :      7.02s CPU      7.59s WALL (       1 calls)

     Called by init_run:
     wfcinit      :      0.97s CPU      1.04s WALL (       1 calls)
     potinit      :      0.79s CPU      0.86s WALL (       1 calls)
     hinit0       :      1.36s CPU      1.43s WALL (       1 calls)

     Called by electrons:
     c_bands      :     46.89s CPU     49.00s WALL (      14 calls)
     sum_band     :     13.32s CPU     16.33s WALL (      14 calls)
     v_of_rho     :      1.56s CPU      1.64s WALL (      15 calls)
     newd         :      6.82s CPU      9.78s WALL (      15 calls)
     PAW_pot      :      7.78s CPU      8.05s WALL (      15 calls)
     mix_rho      :      0.24s CPU      0.25s WALL (      14 calls)

     Called by c_bands:
     init_us_2    :      0.79s CPU      0.81s WALL (     310 calls)
     init_us_2:cp :      0.78s CPU      0.81s WALL (     310 calls)
     cegterg      :     45.15s CPU     47.19s WALL (     140 calls)

     Called by *egterg:
     cdiaghg      :      1.29s CPU      1.34s WALL (    1002 calls)
     h_psi        :     35.60s CPU     37.28s WALL (    1012 calls)
     s_psi        :      1.64s CPU      1.70s WALL (    1012 calls)
     g_psi        :      0.22s CPU      0.23s WALL (     862 calls)

     Called by h_psi:
     h_psi:calbec :      1.91s CPU      2.00s WALL (    1012 calls)
     vloc_psi     :     31.76s CPU     33.25s WALL (    1012 calls)
     add_vuspsi   :      1.75s CPU      1.83s WALL (    1012 calls)

     General routines
     calbec       :      2.47s CPU      2.59s WALL (    1202 calls)
     fft          :      1.11s CPU      1.17s WALL (     218 calls)
     ffts         :      0.15s CPU      0.15s WALL (      29 calls)
     fftw         :     32.89s CPU     34.42s WALL (   29026 calls)
     interpolate  :      0.20s CPU      0.20s WALL (      15 calls)

     Parallel routines

     PWSCF        :   1m28.58s CPU   1m38.04s WALL


   This run was terminated on:   1:25: 9   6May2024            

=------------------------------------------------------------------------------=
   JOB DONE.
=------------------------------------------------------------------------------=
