
     Program PWSCF v.7.1 starts on  6May2024 at  2:10:12 

     This program is part of the open-source Quantum ESPRESSO suite
     for quantum simulation of materials; please cite
         "P. Giannozzi et al., J. Phys.:Condens. Matter 21 395502 (2009);
         "P. Giannozzi et al., J. Phys.:Condens. Matter 29 465901 (2017);
         "P. Giannozzi et al., J. Chem. Phys. 152 154105 (2020);
          URL http://www.quantum-espresso.org", 
     in publications or presentations arising from this work. More details at
     http://www.quantum-espresso.org/quote

     Parallel version (MPI), running on     2 processors

     MPI processes distributed on     1 nodes
     13917 MiB available memory on the printing compute node when the environment starts

     Waiting for input...
     Reading input from standard input
Warning: card &CELL ignored
Warning: card / ignored

     Current dimensions of program PWSCF are:
     Max number of different atomic species (ntypx) = 10
     Max number of k-points (npk) =  40000
     Max angular momentum in pseudopotentials (lmaxx) =  4
     file Ba.pbe-spn-kjpaw_psl.1.0.0.UPF: wavefunction(s)  5S 6S renormalized
     file Bi.pbe-dn-kjpaw_psl.1.0.0.UPF: wavefunction(s)  6P 5D renormalized
     file O.pbe-n-kjpaw_psl.1.0.0.UPF: wavefunction(s)  2S 2P renormalized
     Message from routine setup:
     using ibrav=0 with symmetry is DISCOURAGED, use correct ibrav instead

     R & G space division:  proc/nbgrp/npool/nimage =       2
     Subspace diagonalization in iterative solution of the eigenvalue problem:
     a serial algorithm will be used


     Parallelization info
     --------------------
     sticks:   dense  smooth     PW     G-vecs:    dense   smooth      PW
     Min        1562     782    219                65744    23290    3576
     Max        1563     783    222                65747    23295    3577
     Sum        3125    1565    441               131491    46585    7153

     Using Slab Decomposition



     bravais-lattice index     =            0
     lattice parameter (alat)  =       8.3715  a.u.
     unit-cell volume          =     586.6888 (a.u.)^3
     number of atoms/cell      =            5
     number of atomic types    =            3
     number of electrons       =        43.00
     number of Kohn-Sham states=           26
     kinetic-energy cutoff     =      70.0000  Ry
     charge density cutoff     =     560.0000  Ry
     scf convergence threshold =      1.0E-07
     mixing beta               =       0.7000
     number of iterations used =            8  plain     mixing
     Exchange-correlation= SLA  PW   PBX  PBC
                           (   1   4   3   4   0   0   0)

     celldm(1)=   8.371487  celldm(2)=   0.000000  celldm(3)=   0.000000
     celldm(4)=   0.000000  celldm(5)=   0.000000  celldm(6)=   0.000000

     crystal axes: (cart. coord. in units of alat)
               a(1) = (   1.000000   0.000000   0.000000 )  
               a(2) = (   0.000000   1.000000   0.000000 )  
               a(3) = (   0.000000   0.000000   1.000000 )  

     reciprocal axes: (cart. coord. in units 2 pi/alat)
               b(1) = (  1.000000  0.000000  0.000000 )  
               b(2) = (  0.000000  1.000000  0.000000 )  
               b(3) = (  0.000000  0.000000  1.000000 )  


     PseudoPot. # 1 for Ba read from file:
     /home/bond/Software/qe-7.1/pseudo/Ba.pbe-spn-kjpaw_psl.1.0.0.UPF
     MD5 check sum: 7cfe25f1fe7574a4710541d5a11d6531
     Pseudo is Projector augmented-wave + core cor, Zval = 10.0
     Generated using &quot;atomic&quot; code by A. Dal Corso  v.6.2.2
     Shape of augmentation charge: PSQ
     Using radial grid of 1251 points,  7 beta functions with: 
                l(1) =   0
                l(2) =   0
                l(3) =   0
                l(4) =   1
                l(5) =   1
                l(6) =   2
                l(7) =   2
     Q(r) pseudized with 0 coefficients 


     PseudoPot. # 2 for Bi read from file:
     /home/bond/Software/qe-7.1/pseudo/Bi.pbe-dn-kjpaw_psl.1.0.0.UPF
     MD5 check sum: 266ded784ae3bc462508ed03f0f37963
     Pseudo is Projector augmented-wave + core cor, Zval = 15.0
     Generated using &quot;atomic&quot; code by A. Dal Corso  v.6.2.2
     Shape of augmentation charge: PSQ
     Using radial grid of 1283 points,  6 beta functions with: 
                l(1) =   0
                l(2) =   0
                l(3) =   1
                l(4) =   1
                l(5) =   2
                l(6) =   2
     Q(r) pseudized with 0 coefficients 


     PseudoPot. # 3 for O  read from file:
     /home/bond/Software/qe-7.1/pseudo/O.pbe-n-kjpaw_psl.1.0.0.UPF
     MD5 check sum: e99d9cef9b487d1ca56f5b95ecd0fd7a
     Pseudo is Projector augmented-wave + core cor, Zval =  6.0
     Generated using &quot;atomic&quot; code by A. Dal Corso  v.6.3
     Shape of augmentation charge: PSQ
     Using radial grid of 1095 points,  4 beta functions with: 
                l(1) =   0
                l(2) =   0
                l(3) =   1
                l(4) =   1
     Q(r) pseudized with 0 coefficients 


     atomic species   valence    mass     pseudopotential
        Ba            10.00   137.32700     Ba( 1.00)
        Bi            15.00   208.98040     Bi( 1.00)
        O              6.00    15.99900     O ( 1.00)

     48 Sym. Ops., with inversion, found



   Cartesian axes

     site n.     atom                  positions (alat units)
         1           Ba  tau(   1) = (   0.5000000   0.5000000   0.5000000  )
         2           Bi  tau(   2) = (   0.0000000   0.0000000   0.0000000  )
         3           O   tau(   3) = (   0.0000000   0.0000000   0.5000000  )
         4           O   tau(   4) = (   0.5000000   0.0000000   0.0000000  )
         5           O   tau(   5) = (   0.0000000   0.5000000   0.0000000  )

     number of k points=    56  Methfessel-Paxton smearing, width (Ry)=  0.0200
                       cart. coord. in units 2pi/alat
        k(    1) = (   0.0000000   0.0000000   0.0000000), wk =   0.0020000
        k(    2) = (   0.0000000   0.0000000   0.1000000), wk =   0.0120000
        k(    3) = (   0.0000000   0.0000000   0.2000000), wk =   0.0120000
        k(    4) = (   0.0000000   0.0000000   0.3000000), wk =   0.0120000
        k(    5) = (   0.0000000   0.0000000   0.4000000), wk =   0.0120000
        k(    6) = (   0.0000000   0.0000000  -0.5000000), wk =   0.0060000
        k(    7) = (   0.0000000   0.1000000   0.1000000), wk =   0.0240000
        k(    8) = (   0.0000000   0.1000000   0.2000000), wk =   0.0480000
        k(    9) = (   0.0000000   0.1000000   0.3000000), wk =   0.0480000
        k(   10) = (   0.0000000   0.1000000   0.4000000), wk =   0.0480000
        k(   11) = (   0.0000000   0.1000000  -0.5000000), wk =   0.0240000
        k(   12) = (   0.0000000   0.2000000   0.2000000), wk =   0.0240000
        k(   13) = (   0.0000000   0.2000000   0.3000000), wk =   0.0480000
        k(   14) = (   0.0000000   0.2000000   0.4000000), wk =   0.0480000
        k(   15) = (   0.0000000   0.2000000  -0.5000000), wk =   0.0240000
        k(   16) = (   0.0000000   0.3000000   0.3000000), wk =   0.0240000
        k(   17) = (   0.0000000   0.3000000   0.4000000), wk =   0.0480000
        k(   18) = (   0.0000000   0.3000000  -0.5000000), wk =   0.0240000
        k(   19) = (   0.0000000   0.4000000   0.4000000), wk =   0.0240000
        k(   20) = (   0.0000000   0.4000000  -0.5000000), wk =   0.0240000
        k(   21) = (   0.0000000  -0.5000000  -0.5000000), wk =   0.0060000
        k(   22) = (   0.1000000   0.1000000   0.1000000), wk =   0.0160000
        k(   23) = (   0.1000000   0.1000000   0.2000000), wk =   0.0480000
        k(   24) = (   0.1000000   0.1000000   0.3000000), wk =   0.0480000
        k(   25) = (   0.1000000   0.1000000   0.4000000), wk =   0.0480000
        k(   26) = (   0.1000000   0.1000000  -0.5000000), wk =   0.0240000
        k(   27) = (   0.1000000   0.2000000   0.2000000), wk =   0.0480000
        k(   28) = (   0.1000000   0.2000000   0.3000000), wk =   0.0960000
        k(   29) = (   0.1000000   0.2000000   0.4000000), wk =   0.0960000
        k(   30) = (   0.1000000   0.2000000  -0.5000000), wk =   0.0480000
        k(   31) = (   0.1000000   0.3000000   0.3000000), wk =   0.0480000
        k(   32) = (   0.1000000   0.3000000   0.4000000), wk =   0.0960000
        k(   33) = (   0.1000000   0.3000000  -0.5000000), wk =   0.0480000
        k(   34) = (   0.1000000   0.4000000   0.4000000), wk =   0.0480000
        k(   35) = (   0.1000000   0.4000000  -0.5000000), wk =   0.0480000
        k(   36) = (   0.1000000  -0.5000000  -0.5000000), wk =   0.0120000
        k(   37) = (   0.2000000   0.2000000   0.2000000), wk =   0.0160000
        k(   38) = (   0.2000000   0.2000000   0.3000000), wk =   0.0480000
        k(   39) = (   0.2000000   0.2000000   0.4000000), wk =   0.0480000
        k(   40) = (   0.2000000   0.2000000  -0.5000000), wk =   0.0240000
        k(   41) = (   0.2000000   0.3000000   0.3000000), wk =   0.0480000
        k(   42) = (   0.2000000   0.3000000   0.4000000), wk =   0.0960000
        k(   43) = (   0.2000000   0.3000000  -0.5000000), wk =   0.0480000
        k(   44) = (   0.2000000   0.4000000   0.4000000), wk =   0.0480000
        k(   45) = (   0.2000000   0.4000000  -0.5000000), wk =   0.0480000
        k(   46) = (   0.2000000  -0.5000000  -0.5000000), wk =   0.0120000
        k(   47) = (   0.3000000   0.3000000   0.3000000), wk =   0.0160000
        k(   48) = (   0.3000000   0.3000000   0.4000000), wk =   0.0480000
        k(   49) = (   0.3000000   0.3000000  -0.5000000), wk =   0.0240000
        k(   50) = (   0.3000000   0.4000000   0.4000000), wk =   0.0480000
        k(   51) = (   0.3000000   0.4000000  -0.5000000), wk =   0.0480000
        k(   52) = (   0.3000000  -0.5000000  -0.5000000), wk =   0.0120000
        k(   53) = (   0.4000000   0.4000000   0.4000000), wk =   0.0160000
        k(   54) = (   0.4000000   0.4000000  -0.5000000), wk =   0.0240000
        k(   55) = (   0.4000000  -0.5000000  -0.5000000), wk =   0.0120000
        k(   56) = (  -0.5000000  -0.5000000  -0.5000000), wk =   0.0020000

     Dense  grid:   131491 G-vectors     FFT dimensions: (  64,  64,  64)

     Smooth grid:    46585 G-vectors     FFT dimensions: (  45,  45,  45)

     Estimated max dynamical RAM per process >     336.62 MB

     Estimated total dynamical RAM >     673.24 MB

     Initial potential from superposition of free atoms

     starting charge      42.9822, renormalised to      43.0000
     Starting wfcs are   26 randomized atomic wfcs
     Checking if some PAW data can be deallocated... 

     total cpu time spent up to now is       10.1 secs

     Self-consistent Calculation

     iteration #  1     ecut=    70.00 Ry     beta= 0.70
     Davidson diagonalization with overlap
     ethr =  1.00E-02,  avg # of iterations =  2.0

     total cpu time spent up to now is       27.1 secs

     total energy              =   -1466.64531449 Ry
     estimated scf accuracy    <       1.76017922 Ry

     iteration #  2     ecut=    70.00 Ry     beta= 0.70
     Davidson diagonalization with overlap
     ethr =  4.09E-03,  avg # of iterations =  6.5

     total cpu time spent up to now is       52.2 secs

     total energy              =   -1467.12117476 Ry
     estimated scf accuracy    <       3.98445769 Ry

     iteration #  3     ecut=    70.00 Ry     beta= 0.70
     Davidson diagonalization with overlap
     ethr =  4.09E-03,  avg # of iterations =  2.3

     total cpu time spent up to now is       70.8 secs

     total energy              =   -1467.40656119 Ry
     estimated scf accuracy    <       0.44161617 Ry

     iteration #  4     ecut=    70.00 Ry     beta= 0.70
     Davidson diagonalization with overlap
     ethr =  1.03E-03,  avg # of iterations =  5.4

     total cpu time spent up to now is       95.2 secs

     total energy              =   -1467.78543135 Ry
     estimated scf accuracy    <       0.14461252 Ry

     iteration #  5     ecut=    70.00 Ry     beta= 0.70
     Davidson diagonalization with overlap
     ethr =  3.36E-04,  avg # of iterations =  3.2

     total cpu time spent up to now is      112.7 secs

     total energy              =   -1467.75778581 Ry
     estimated scf accuracy    <       0.09108318 Ry

     iteration #  6     ecut=    70.00 Ry     beta= 0.70
     Davidson diagonalization with overlap
     ethr =  2.12E-04,  avg # of iterations =  6.7

     total cpu time spent up to now is      133.0 secs

     total energy              =   -1467.76339539 Ry
     estimated scf accuracy    <       0.01192447 Ry

     iteration #  7     ecut=    70.00 Ry     beta= 0.70
     Davidson diagonalization with overlap
     c_bands:  1 eigenvalues not converged
     c_bands:  2 eigenvalues not converged
     c_bands:  1 eigenvalues not converged
     c_bands:  1 eigenvalues not converged
     c_bands:  1 eigenvalues not converged
     c_bands:  1 eigenvalues not converged
     ethr =  2.77E-05,  avg # of iterations = 11.4

     total cpu time spent up to now is      162.1 secs

     total energy              =   -1467.77011423 Ry
     estimated scf accuracy    <       0.00053814 Ry

     iteration #  8     ecut=    70.00 Ry     beta= 0.70
     Davidson diagonalization with overlap
     c_bands:  2 eigenvalues not converged
     c_bands:  1 eigenvalues not converged
     c_bands:  1 eigenvalues not converged
     c_bands:  1 eigenvalues not converged
     c_bands:  1 eigenvalues not converged
     c_bands:  1 eigenvalues not converged
     c_bands:  1 eigenvalues not converged
     c_bands:  1 eigenvalues not converged
     c_bands:  1 eigenvalues not converged
     c_bands:  2 eigenvalues not converged
     c_bands:  2 eigenvalues not converged
     c_bands:  1 eigenvalues not converged
     c_bands:  1 eigenvalues not converged
     c_bands:  1 eigenvalues not converged
     c_bands:  1 eigenvalues not converged
     c_bands:  1 eigenvalues not converged
     c_bands:  1 eigenvalues not converged
     c_bands:  1 eigenvalues not converged
     ethr =  1.25E-06,  avg # of iterations = 13.4

     total cpu time spent up to now is      191.0 secs

     total energy              =   -1467.76978791 Ry
     estimated scf accuracy    <       0.00116989 Ry

     iteration #  9     ecut=    70.00 Ry     beta= 0.70
     Davidson diagonalization with overlap
     c_bands:  1 eigenvalues not converged
     ethr =  1.25E-06,  avg # of iterations =  6.5

     total cpu time spent up to now is      214.9 secs

     total energy              =   -1467.76996750 Ry
     estimated scf accuracy    <       0.00001360 Ry

     iteration # 10     ecut=    70.00 Ry     beta= 0.70
     Davidson diagonalization with overlap
     ethr =  3.16E-08,  avg # of iterations =  7.5

     total cpu time spent up to now is      244.1 secs

     total energy              =   -1467.77001849 Ry
     estimated scf accuracy    <       0.00013226 Ry

     iteration # 11     ecut=    70.00 Ry     beta= 0.70
     Davidson diagonalization with overlap
     ethr =  3.16E-08,  avg # of iterations =  2.0

     total cpu time spent up to now is      262.8 secs

     total energy              =   -1467.76999264 Ry
     estimated scf accuracy    <       0.00007078 Ry

     iteration # 12     ecut=    70.00 Ry     beta= 0.70
     Davidson diagonalization with overlap
     ethr =  3.16E-08,  avg # of iterations =  5.1

     total cpu time spent up to now is      289.3 secs

     total energy              =   -1467.77000963 Ry
     estimated scf accuracy    <       0.00000019 Ry

     iteration # 13     ecut=    70.00 Ry     beta= 0.70
     Davidson diagonalization with overlap
     ethr =  4.31E-10,  avg # of iterations =  5.9

     total cpu time spent up to now is      317.3 secs

     total energy              =   -1467.77000988 Ry
     estimated scf accuracy    <       0.00000017 Ry

     iteration # 14     ecut=    70.00 Ry     beta= 0.70
     Davidson diagonalization with overlap
     ethr =  4.04E-10,  avg # of iterations =  2.7

     total cpu time spent up to now is      336.1 secs

     End of self-consistent calculation

          k = 0.0000 0.0000 0.0000 (  5743 PWs)   bands (ev):

   -17.3286 -13.1809 -13.1809 -12.8036 -12.8036 -12.8036  -8.8700  -6.5478
    -6.5478  -2.4391  -2.4391  -2.4391   3.2096   4.0440   4.0440   4.0440
     7.6481   7.6481   7.6481   7.8694   7.8694   7.8694  12.9896  12.9896
    14.0292  14.9185

          k = 0.0000 0.0000 0.1000 (  5807 PWs)   bands (ev):

   -17.3263 -13.1809 -13.1662 -12.8045 -12.8045 -12.8036  -8.8462  -6.6311
    -6.5467  -2.4319  -2.4319  -2.4264   2.6237   4.0462   4.0462   4.7524
     7.5938   7.6229   7.6229   7.8483   7.8483   7.8739  13.1151  13.1200
    14.2011  15.0078

          k = 0.0000 0.0000 0.2000 (  5794 PWs)   bands (ev):

   -17.3204 -13.1807 -13.1270 -12.8065 -12.8065 -12.8035  -8.7727  -6.8587
    -6.5438  -2.4130  -2.4130  -2.3966   1.9406   4.0511   4.0511   5.6874
     7.4600   7.5640   7.5640   7.7910   7.7910   8.0068  13.4453  13.4613
    14.6959  15.2320

          k = 0.0000 0.0000 0.3000 (  5770 PWs)   bands (ev):

   -17.3130 -13.1804 -13.0777 -12.8090 -12.8090 -12.8034  -8.6475  -7.1714
    -6.5401  -2.3894  -2.3894  -2.3660   1.4487   4.0548   4.0548   6.2420
     7.3079   7.5090   7.5090   7.7112   7.7112   8.5544  13.8622  13.8692
    15.1045  15.4356

          k = 0.0000 0.0000 0.4000 (  5798 PWs)   bands (ev):

   -17.3070 -13.1802 -13.0372 -12.8112 -12.8112 -12.8033  -8.4879  -7.4806
    -6.5372  -2.3700  -2.3700  -2.3460   1.1616   4.0556   4.0556   6.3875
     7.1937   7.4883   7.4883   7.6295   7.6295   9.3650  14.1179  14.2131
    15.1836  15.6838

          k = 0.0000 0.0000-0.5000 (  5846 PWs)   bands (ev):

   -17.3048 -13.1802 -13.0216 -12.8121 -12.8121 -12.8033  -8.3927  -7.6326
    -6.5361  -2.3626  -2.3626  -2.3395   1.0682   4.0554   4.0554   6.4034
     7.1519   7.4939   7.4939   7.5861   7.5861   9.7705  14.1365  14.3519
    15.2161  15.7501

          k = 0.0000 0.1000 0.1000 (  5807 PWs)   bands (ev):

   -17.3241 -13.1735 -13.1587 -12.8052 -12.8045 -12.8044  -8.8222  -6.6692
    -6.5884  -2.4373  -2.4250  -2.4057   2.2252   4.0507   4.2967   5.0199
     7.4931   7.5972   7.6528   7.8257   7.8407   7.8909  13.2254  13.2505
    14.3383  15.0452

          k = 0.0000 0.1000 0.2000 (  5791 PWs)   bands (ev):

   -17.3183 -13.1705 -13.1219 -12.8072 -12.8065 -12.8043  -8.7483  -6.8750
    -6.6015  -2.4292  -2.4068  -2.3767   1.6246   4.0615   4.4237   5.7354
     7.3434   7.5366   7.6255   7.7645   7.8440   8.0295  13.5224  13.5966
    14.7363  15.0980

          k = 0.0000 0.1000 0.3000 (  5792 PWs)   bands (ev):

   -17.3111 -13.1697 -13.0727 -12.8097 -12.8090 -12.8042  -8.6223  -7.1800
    -6.5994  -2.4103  -2.3841  -2.3555   1.1603   4.0728   4.4568   6.2325
     7.2113   7.4793   7.5675   7.6796   7.7925   8.6041  13.9138  14.0085
    15.1857  15.2815

          k = 0.0000 0.1000 0.4000 (  5790 PWs)   bands (ev):

   -17.3052 -13.1694 -13.0320 -12.8117 -12.8111 -12.8041  -8.4609  -7.4861
    -6.5963  -2.3880  -2.3656  -2.3500   0.8834   4.0800   4.4687   6.3736
     7.1317   7.4581   7.5268   7.5922   7.7299   9.4194  14.2005  14.2955
    15.2643  15.5532

          k = 0.0000 0.1000-0.5000 (  5806 PWs)   bands (ev):

   -17.3030 -13.1693 -13.0162 -12.8125 -12.8119 -12.8041  -8.3634  -7.6386
    -6.5951  -2.3745  -2.3584  -2.3540   0.7926   4.0822   4.4719   6.3903
     7.1059   7.4664   7.5168   7.5439   7.6996   9.8273  14.1991  14.4292
    15.2940  15.6049

          k = 0.0000 0.2000 0.2000 (  5794 PWs)   bands (ev):

   -17.3128 -13.1541 -13.0977 -12.8091 -12.8064 -12.8063  -8.6732  -6.9722
    -6.7091  -2.4402  -2.3906  -2.3582   1.0811   4.0884   4.9902   5.9330
     7.1696   7.4703   7.6602   7.6935   7.9733   8.1907  13.7387  13.9666
    14.9097  15.3152

          k = 0.0000 0.2000 0.3000 (  5806 PWs)   bands (ev):

   -17.3060 -13.1473 -13.0536 -12.8114 -12.8089 -12.8062  -8.5451  -7.2161
    -6.7534  -2.4377  -2.3704  -2.3565   0.6350   4.1206   5.2576   6.2183
     7.0561   7.4046   7.5964   7.6408   7.9757   8.8016  14.0563  14.4031
    15.1857  15.3933

          k = 0.0000 0.2000 0.4000 (  5795 PWs)   bands (ev):

   -17.3005 -13.1450 -13.0139 -12.8132 -12.8109 -12.8061  -8.3789  -7.5020
    -6.7630  -2.4229  -2.3719  -2.3538   0.3628   4.1457   5.3469   6.3244
     7.0626   7.3778   7.4967   7.5973   7.9410   9.6084  14.3298  14.5951
    15.2900  15.4655

          k = 0.0000 0.2000-0.5000 (  5798 PWs)   bands (ev):

   -17.2984 -13.1444 -12.9982 -12.8139 -12.8117 -12.8061  -8.2744  -7.6544
    -6.7647  -2.4050  -2.3911  -2.3475   0.2728   4.1550   5.3711   6.3284
     7.0911   7.3913   7.4362   7.5744   7.9219  10.0176  14.2953  14.6661
    15.2643  15.4960

          k = 0.0000 0.3000 0.3000 (  5808 PWs)   bands (ev):

   -17.2998 -13.1308 -13.0178 -12.8134 -12.8088 -12.8086  -8.4142  -7.3239
    -6.9183  -2.4546  -2.3768  -2.3532   0.1888   4.1811   5.9427   6.2258
     6.9695   7.3239   7.4860   7.6750   8.1109   9.2924  14.2669  14.9111
    15.1612  15.6211

          k = 0.0000 0.3000 0.4000 (  5817 PWs)   bands (ev):

   -17.2947 -13.1236 -12.9817 -12.8151 -12.8108 -12.8086  -8.2411  -7.5310
    -7.0009  -2.4551  -2.4083  -2.3392  -0.0883   4.2311   6.1938   6.2878
     7.0603   7.2807   7.3775   7.6597   8.1462  10.0044  14.4467  14.8538
    15.0846  15.7968

          k = 0.0000 0.3000-0.5000 (  5808 PWs)   bands (ev):

   -17.2928 -13.1216 -12.9669 -12.8157 -12.8115 -12.8086  -8.1234  -7.6740
    -7.0204  -2.4413  -2.4347  -2.3338  -0.1807   4.2504   6.2246   6.3086
     7.1572   7.2923   7.3085   7.6356   8.1462  10.3963  14.3054  14.8866
    14.9144  15.8948

          k = 0.0000 0.4000 0.4000 (  5808 PWs)   bands (ev):

   -17.2900 -13.1123 -12.9486 -12.8166 -12.8106 -12.8105  -8.0558  -7.5950
    -7.2300  -2.4723  -2.4450  -2.3273  -0.3723   4.3040   6.1637   6.8489
     7.1266   7.2129   7.2700   7.6750   8.2737  10.5984  14.4736  14.6399
    15.0203  15.1469

          k = 0.0000 0.4000-0.5000 (  5818 PWs)   bands (ev):

   -17.2882 -13.1090 -12.9347 -12.8171 -12.8114 -12.8105  -7.9115  -7.6900
    -7.3212  -2.4695  -2.4680  -2.3227  -0.4679   4.3329   6.1354   6.9987
     7.2064   7.2092   7.2372   7.6557   8.3121  10.9617  14.2286  14.5228
    14.9653  15.0528

          k = 0.0000-0.5000-0.5000 (  5824 PWs)   bands (ev):

   -17.2864 -13.1053 -12.9210 -12.8177 -12.8113 -12.8113  -7.6961  -7.6961
    -7.5716  -2.4801  -2.4801  -2.3184  -0.5648   4.3658   6.1014   7.1721
     7.1721   7.2709   7.2709   7.6310   8.3737  11.3246  14.1822  14.1822
    14.6857  15.1010

          k = 0.1000 0.1000 0.1000 (  5794 PWs)   bands (ev):

   -17.3219 -13.1585 -13.1585 -12.8052 -12.8052 -12.8051  -8.7982  -6.6674
    -6.6674  -2.4329  -2.4329  -2.3846   1.8960   4.3008   4.3008   5.2153
     7.4735   7.4735   7.7162   7.8146   7.8715   7.8715  13.3485  13.3485
    14.4418  15.1350

          k = 0.1000 0.1000 0.2000 (  5797 PWs)   bands (ev):

   -17.3162 -13.1583 -13.1187 -12.8073 -12.8071 -12.8051  -8.7240  -6.8847
    -6.6626  -2.4302  -2.4213  -2.3558   1.3447   4.3104   4.5205   5.7812
     7.3103   7.4202   7.7164   7.8154   7.8316   8.0419  13.6203  13.6810
    14.7518  15.1834

          k = 0.1000 0.1000 0.3000 (  5802 PWs)   bands (ev):

   -17.3092 -13.1580 -13.0688 -12.8099 -12.8095 -12.8050  -8.5975  -7.1865
    -6.6567  -2.4134  -2.4068  -2.3392   0.8987   4.3201   4.5998   6.2245
     7.1728   7.3762   7.6520   7.7456   7.7941   8.6452  13.9945  14.0765
    15.1982  15.3003

          k = 0.1000 0.1000 0.4000 (  5788 PWs)   bands (ev):

   -17.3035 -13.1577 -13.0276 -12.8120 -12.8114 -12.8049  -8.4347  -7.4902
    -6.6519  -2.3950  -2.3887  -2.3415   0.6283   4.3262   4.6342   6.3659
     7.0862   7.3883   7.5875   7.6437   7.7605   9.4679  14.2573  14.3449
    15.3524  15.4819

          k = 0.1000 0.1000-0.5000 (  5788 PWs)   bands (ev):

   -17.3013 -13.1576 -13.0116 -12.8128 -12.8122 -12.8048  -8.3351  -7.6434
    -6.6501  -2.3905  -2.3687  -2.3540   0.5391   4.3281   4.6447   6.3861
     7.0572   7.4225   7.5624   7.5782   7.7461   9.8791  14.2085  14.4985
    15.3978  15.4800

          k = 0.1000 0.2000 0.2000 (  5790 PWs)   bands (ev):

   -17.3109 -13.1386 -13.0976 -12.8091 -12.8071 -12.8071  -8.6491  -6.9689
    -6.7752  -2.4422  -2.4186  -2.3344   0.8336   4.4083   4.9994   5.9568
     7.1751   7.3393   7.7630   7.7739   7.9554   8.2028  13.8311  13.9886
    14.8746  15.3133

          k = 0.1000 0.2000 0.3000 (  5800 PWs)   bands (ev):

   -17.3042 -13.1326 -13.0523 -12.8114 -12.8096 -12.8070  -8.5215  -7.2164
    -6.8065  -2.4431  -2.4112  -2.3308   0.3995   4.4461   5.2904   6.2162
     7.0581   7.2902   7.6765   7.7539   7.9653   8.8272  14.1265  14.3664
    15.1400  15.3540

          k = 0.1000 0.2000 0.4000 (  5802 PWs)   bands (ev):

   -17.2988 -13.1310 -13.0117 -12.8134 -12.8115 -12.8069  -8.3551  -7.5029
    -6.8091  -2.4325  -2.4062  -2.3423   0.1308   4.4719   5.4021   6.3356
     7.0240   7.3026   7.5893   7.6812   7.9462   9.6432  14.3173  14.5490
    15.2206  15.5455

          k = 0.1000 0.2000-0.5000 (  5794 PWs)   bands (ev):

   -17.2967 -13.1306 -12.9957 -12.8141 -12.8122 -12.8069  -8.2491  -7.6562
    -6.8087  -2.4230  -2.4062  -2.3511   0.0415   4.4811   5.4347   6.3487
     7.0220   7.3485   7.5369   7.6354   7.9366  10.0576  14.1870  14.7162
    15.1286  15.6549

          k = 0.1000 0.3000 0.3000 (  5824 PWs)   bands (ev):

   -17.2980 -13.1146 -13.0177 -12.8136 -12.8095 -12.8095  -8.3925  -7.3192
    -6.9637  -2.4635  -2.4180  -2.3373  -0.0377   4.5167   5.9598   6.2377
     6.9677   7.2337   7.5909   7.7767   8.1064   9.3109  14.2931  14.7039
    15.1136  15.2921

          k = 0.1000 0.3000 0.4000 (  5812 PWs)   bands (ev):

   -17.2930 -13.1075 -12.9813 -12.8153 -12.8115 -12.8094  -8.2212  -7.5279
    -7.0345  -2.4672  -2.4338  -2.3470  -0.3132   4.5700   6.2235   6.3232
     7.0053   7.2268   7.5086   7.7403   8.1490  10.0272  14.3368  14.6426
    15.0652  15.3094

          k = 0.1000 0.3000-0.5000 (  5796 PWs)   bands (ev):

   -17.2911 -13.1056 -12.9662 -12.8159 -12.8122 -12.8094  -8.1035  -7.6722
    -7.0497  -2.4588  -2.4502  -2.3506  -0.4056   4.5903   6.2729   6.3408
     7.0444   7.2699   7.4759   7.6979   8.1535  10.4250  14.0951  14.7176
    14.9749  15.3521

          k = 0.1000 0.4000 0.4000 (  5815 PWs)   bands (ev):

   -17.2884 -13.0956 -12.9486 -12.8168 -12.8114 -12.8114  -8.0409  -7.5894
    -7.2514  -2.4861  -2.4644  -2.3501  -0.5971   4.6483   6.2240   6.8509
     7.0263   7.2046   7.4512   7.7393   8.2778  10.6192  14.2958  14.3276
    14.8534  15.1203

          k = 0.1000 0.4000-0.5000 (  5816 PWs)   bands (ev):

   -17.2866 -13.0923 -12.9346 -12.8174 -12.8122 -12.8114  -7.8993  -7.6852
    -7.3355  -2.4858  -2.4836  -2.3510  -0.6932   4.6791   6.2050   6.9589
     7.0597   7.2741   7.4547   7.7003   8.3173  10.9878  13.9751  14.2836
    14.7259  15.1403

          k = 0.1000-0.5000-0.5000 (  5812 PWs)   bands (ev):

   -17.2848 -13.0884 -12.9210 -12.8180 -12.8122 -12.8122  -7.6903  -7.6903
    -7.5767  -2.4957  -2.4957  -2.3513  -0.7910   4.7143   6.1791   7.0583
     7.0583   7.4569   7.4569   7.6321   8.3785  11.3574  13.9202  13.9203
    14.5139  15.1954

          k = 0.2000 0.2000 0.2000 (  5809 PWs)   bands (ev):

   -17.3058 -13.0974 -13.0974 -12.8093 -12.8093 -12.8087  -8.5753  -6.9602
    -6.9602  -2.4477  -2.4477  -2.3180   0.3518   5.0227   5.0227   6.0482
     7.1678   7.1678   7.8999   7.9064   7.9064   8.3633  14.0840  14.0841
    14.8814  15.3378

          k = 0.2000 0.2000 0.3000 (  5795 PWs)   bands (ev):

   -17.2994 -13.0971 -13.0455 -12.8119 -12.8110 -12.8090  -8.4492  -7.2258
    -6.9494  -2.4590  -2.4545  -2.3261  -0.0759   5.0502   5.4709   6.2263
     7.0413   7.1492   7.8365   7.8868   7.9755   8.9691  14.2809  14.3172
    15.0048  15.2625

          k = 0.2000 0.2000 0.4000 (  5816 PWs)   bands (ev):

   -17.2943 -13.0969 -13.0026 -12.8141 -12.8127 -12.8090  -8.2828  -7.5068
    -6.9406  -2.4602  -2.4530  -2.3513  -0.3465   5.0713   5.6785   6.3598
     6.9713   7.2016   7.7623   7.7749   8.0074   9.7820  14.1563  14.5474
    15.1009  15.2096

          k = 0.2000 0.2000-0.5000 (  5790 PWs)   bands (ev):

   -17.2923 -13.0968 -12.9860 -12.8149 -12.8133 -12.8090  -8.1726  -7.6611
    -6.9373  -2.4624  -2.4447  -2.3679  -0.4373   5.0791   5.7436   6.3829
     6.9501   7.2773   7.6709   7.7498   8.0152  10.2042  13.9293  14.7587
    14.9320  15.3039

          k = 0.2000 0.3000 0.3000 (  5808 PWs)   bands (ev):

   -17.2935 -13.0716 -13.0175 -12.8139 -12.8117 -12.8111  -8.3261  -7.3069
    -7.0944  -2.4870  -2.4739  -2.3476  -0.5112   5.2757   6.0055   6.2801
     6.9754   7.0956   7.8299   7.9375   8.0994   9.4144  14.2652  14.3328
    14.8599  15.2512

          k = 0.2000 0.3000 0.4000 (  5796 PWs)   bands (ev):

   -17.2886 -13.0654 -12.9795 -12.8158 -12.8133 -12.8115  -8.1610  -7.5205
    -7.1322  -2.4992  -2.4869  -2.3797  -0.7924   5.3485   6.3072   6.4188
     6.9473   7.1361   7.7690   7.8919   8.1623  10.1233  13.9533  14.2842
    14.7861  15.2331

          k = 0.2000 0.3000-0.5000 (  5798 PWs)   bands (ev):

   -17.2868 -13.0642 -12.9636 -12.8165 -12.8140 -12.8116  -8.0435  -7.6674
    -7.1364  -2.5019  -2.4901  -2.3961  -0.8877   5.3721   6.3925   6.4417
     6.9444   7.2275   7.7220   7.8458   8.1786  10.5319  13.6554  14.2861
    14.7726  15.2226

          k = 0.2000 0.4000 0.4000 (  5802 PWs)   bands (ev):

   -17.2841 -13.0512 -12.9485 -12.8174 -12.8137 -12.8135  -7.9960  -7.5747
    -7.3147  -2.5224  -2.5131  -2.4103  -1.0853   5.4665   6.3803   6.8600
     6.9492   7.1916   7.7475   7.8995   8.2892  10.6955  13.7601  13.8451
    14.4026  15.3721

          k = 0.2000 0.4000-0.5000 (  5822 PWs)   bands (ev):

   -17.2823 -13.0478 -12.9344 -12.8181 -12.8144 -12.8137  -7.8632  -7.6727
    -7.3780  -2.5280  -2.5242  -2.4236  -1.1858   5.5071   6.3859   6.9180
     6.9629   7.3617   7.7378   7.8525   8.3309  11.0741  13.4466  13.7523
    14.2751  15.4153

          k = 0.2000-0.5000-0.5000 (  5796 PWs)   bands (ev):

   -17.2806 -13.0435 -12.9210 -12.8186 -12.8145 -12.8145  -7.6748  -7.6748
    -7.5909  -2.5365  -2.5365  -2.4352  -1.2886   5.5547   6.3822   6.9703
     6.9703   7.6348   7.7438   7.7438   8.3911  11.4589  13.3674  13.3674
    14.1029  15.4754

          k = 0.3000 0.3000 0.3000 (  5794 PWs)   bands (ev):

   -17.2878 -13.0173 -13.0173 -12.8145 -12.8145 -12.8130  -8.2131  -7.2915
    -7.2915  -2.5162  -2.5162  -2.3869  -0.9596   6.0637   6.0637   6.3635
     6.9896   6.9896   8.0179   8.0179   8.1391   9.7583  14.0188  14.0188
    14.5332  15.5664

          k = 0.3000 0.3000 0.4000 (  5797 PWs)   bands (ev):

   -17.2832 -13.0171 -12.9723 -12.8167 -12.8154 -12.8141  -8.0596  -7.5169
    -7.2789  -2.5399  -2.5351  -2.4337  -1.2560   6.1122   6.4519   6.5823
     6.9280   7.0700   8.0067   8.0122   8.2130  10.3841  13.5505  13.8218
    14.2938  15.5858

          k = 0.3000 0.3000-0.5000 (  5800 PWs)   bands (ev):

   -17.2814 -13.0170 -12.9548 -12.8175 -12.8160 -12.8143  -7.9432  -7.6617
    -7.2741  -2.5490  -2.5377  -2.4562  -1.3578   6.1311   6.5223   6.6603
     6.9083   7.2115   7.9315   8.0051   8.2413  10.7856  13.2202  13.7555
    14.2183  15.5962

          k = 0.3000 0.4000 0.4000 (  5817 PWs)   bands (ev):

   -17.2787 -12.9950 -12.9484 -12.8182 -12.8166 -12.8160  -7.9213  -7.5564
    -7.4155  -2.5673  -2.5672  -2.4872  -1.5682   6.3940   6.5712   6.8784
     6.9276   7.1831   8.0472   8.0910   8.3072  10.8804  13.2263  13.3369
    13.8984  15.8092

          k = 0.3000 0.4000-0.5000 (  5814 PWs)   bands (ev):

   -17.2770 -12.9918 -12.9338 -12.8189 -12.8170 -12.8165  -7.8046  -7.6572
    -7.4469  -2.5791  -2.5739  -2.5110  -1.6769   6.4546   6.6065   6.9087
     6.9179   7.4101   8.0325   8.0796   8.3497  11.2524  12.9062  13.1948
    13.7595  15.8527

          k = 0.3000-0.5000-0.5000 (  5820 PWs)   bands (ev):

   -17.2754 -12.9866 -12.9209 -12.8195 -12.8173 -12.8173  -7.6555  -7.6555
    -7.6100  -2.5868  -2.5868  -2.5354  -1.7887   6.5344   6.6329   6.9292
     6.9292   7.6380   8.0560   8.0560   8.4067  11.6409  12.7906  12.7906
    13.5896  15.9146

          k = 0.4000 0.4000 0.4000 (  5800 PWs)   bands (ev):

   -17.2744 -12.9483 -12.9483 -12.8188 -12.8188 -12.8180  -7.8195  -7.5414
    -7.5414  -2.6034  -2.6034  -2.5539  -1.8994   6.7201   6.8989   6.8989
     7.1778   7.1778   8.2299   8.2299   8.3435  11.2482  12.8481  12.8481
    13.4477  16.3013

          k = 0.4000 0.4000-0.5000 (  5816 PWs)   bands (ev):

   -17.2728 -12.9482 -12.9302 -12.8197 -12.8191 -12.8188  -7.7263  -7.6446
    -7.5357  -2.6172  -2.6130  -2.5825  -2.0159   6.7786   6.9082   6.9096
     7.1755   7.4814   8.2571   8.2635   8.3793  11.5788  12.5026  12.7100
    13.2693  16.3029

          k = 0.4000-0.5000-0.5000 (  5824 PWs)   bands (ev):

   -17.2711 -12.9392 -12.9209 -12.8203 -12.8196 -12.8196  -7.6397  -7.6397
    -7.6268  -2.6274  -2.6274  -2.6136  -2.1355   6.8358   6.9158   6.9158
     7.3297   7.6407   8.3177   8.3177   8.4195  11.9224  12.3504  12.3504
    13.0502  16.4058

          k =-0.5000-0.5000-0.5000 (  5832 PWs)   bands (ev):

   -17.2695 -12.9209 -12.9209 -12.8205 -12.8205 -12.8205  -7.6336  -7.6336
    -7.6336  -2.6429  -2.6429  -2.6429  -2.2580   6.9134   6.9134   6.9134
     7.6418   7.6418   8.4244   8.4244   8.4244  12.1816  12.1816  12.1816
    12.6902  16.6881

     the Fermi energy is     9.8401 ev

!    total energy              =   -1467.77000991 Ry
     total all-electron energy =    -59784.861793 Ry
     estimated scf accuracy    <          4.9E-09 Ry
     smearing contrib. (-TS)   =       0.00008193 Ry
     internal energy E=F+TS    =   -1467.77009183 Ry

     The total energy is F=E-TS. E is the sum of the following terms:
     one-electron contribution =     -84.12675507 Ry
     hartree contribution      =      73.70294093 Ry
     xc contribution           =     -75.27560087 Ry
     ewald contribution        =    -221.76066282 Ry
     one-center paw contrib.   =   -1160.31001401 Ry

     convergence has been achieved in  14 iterations

     Forces acting on atoms (cartesian axes, Ry/au):

     atom    1 type  1   force =     0.00000000    0.00000000    0.00000000
     atom    2 type  2   force =     0.00000000    0.00000000    0.00000000
     atom    3 type  3   force =     0.00000000    0.00000000    0.00000000
     atom    4 type  3   force =     0.00000000    0.00000000    0.00000000
     atom    5 type  3   force =     0.00000000    0.00000000    0.00000000

     Total force =     0.000000     Total SCF correction =     0.000000


     Computing stress (Cartesian axis) and pressure

          total   stress  (Ry/bohr**3)                   (kbar)     P=       -5.80
  -0.00003941   0.00000000   0.00000000           -5.80        0.00        0.00
   0.00000000  -0.00003941   0.00000000            0.00       -5.80        0.00
   0.00000000   0.00000000  -0.00003941            0.00        0.00       -5.80


     init_run     :      8.13s CPU      9.06s WALL (       1 calls)
     electrons    :    299.26s CPU    326.01s WALL (       1 calls)
     forces       :      2.27s CPU      2.57s WALL (       1 calls)
     stress       :     13.97s CPU     15.32s WALL (       1 calls)

     Called by init_run:
     wfcinit      :      5.34s CPU      5.80s WALL (       1 calls)
     potinit      :      0.82s CPU      0.90s WALL (       1 calls)
     hinit0       :      1.37s CPU      1.48s WALL (       1 calls)

     Called by electrons:
     c_bands      :    242.60s CPU    260.28s WALL (      14 calls)
     sum_band     :     40.68s CPU     46.35s WALL (      14 calls)
     v_of_rho     :      1.69s CPU      1.84s WALL (      15 calls)
     newd         :      6.98s CPU      9.93s WALL (      15 calls)
     PAW_pot      :      7.95s CPU      8.44s WALL (      15 calls)
     mix_rho      :      0.27s CPU      0.29s WALL (      14 calls)

     Called by c_bands:
     init_us_2    :      4.41s CPU      4.76s WALL (    1736 calls)
     init_us_2:cp :      4.40s CPU      4.75s WALL (    1736 calls)
     cegterg      :    232.61s CPU    249.65s WALL (     784 calls)

     Called by *egterg:
     cdiaghg      :      6.82s CPU      7.26s WALL (    5302 calls)
     h_psi        :    183.75s CPU    197.28s WALL (    5358 calls)
     s_psi        :      8.31s CPU      8.92s WALL (    5358 calls)
     g_psi        :      1.02s CPU      1.10s WALL (    4518 calls)

     Called by h_psi:
     h_psi:calbec :     10.08s CPU     10.88s WALL (    5358 calls)
     vloc_psi     :    163.61s CPU    175.67s WALL (    5358 calls)
     add_vuspsi   :      9.14s CPU      9.74s WALL (    5358 calls)

     General routines
     calbec       :     13.92s CPU     14.99s WALL (    6422 calls)
     fft          :      1.27s CPU      1.39s WALL (     218 calls)
     ffts         :      0.15s CPU      0.18s WALL (      29 calls)
     fftw         :    172.52s CPU    185.34s WALL (  145504 calls)
     interpolate  :      0.20s CPU      0.22s WALL (      15 calls)

     Parallel routines

     PWSCF        :   5m24.59s CPU   5m54.04s WALL


   This run was terminated on:   2:16: 6   6May2024            

=------------------------------------------------------------------------------=
   JOB DONE.
=------------------------------------------------------------------------------=
