
     Program PWSCF v.7.1 starts on  6May2024 at 22:53:52 

     This program is part of the open-source Quantum ESPRESSO suite
     for quantum simulation of materials; please cite
         "P. Giannozzi et al., J. Phys.:Condens. Matter 21 395502 (2009);
         "P. Giannozzi et al., J. Phys.:Condens. Matter 29 465901 (2017);
         "P. Giannozzi et al., J. Chem. Phys. 152 154105 (2020);
          URL http://www.quantum-espresso.org", 
     in publications or presentations arising from this work. More details at
     http://www.quantum-espresso.org/quote

     Parallel version (MPI), running on     2 processors

     MPI processes distributed on     1 nodes
     13570 MiB available memory on the printing compute node when the environment starts

     Waiting for input...
     Reading input from standard input
Warning: card &CELL ignored
Warning: card / ignored

     Current dimensions of program PWSCF are:
     Max number of different atomic species (ntypx) = 10
     Max number of k-points (npk) =  40000
     Max angular momentum in pseudopotentials (lmaxx) =  4
     file Ba.pbe-spn-kjpaw_psl.1.0.0.UPF: wavefunction(s)  5S 6S renormalized
     file Bi.pbe-dn-kjpaw_psl.1.0.0.UPF: wavefunction(s)  6P 5D renormalized
     file F.pbe-n-kjpaw_psl.1.0.0.UPF: wavefunction(s)  2S 2P renormalized
     file O.pbe-n-kjpaw_psl.1.0.0.UPF: wavefunction(s)  2S 2P renormalized
     Message from routine setup:
     using ibrav=0 with symmetry is DISCOURAGED, use correct ibrav instead

     R & G space division:  proc/nbgrp/npool/nimage =       2
     Subspace diagonalization in iterative solution of the eigenvalue problem:
     a serial algorithm will be used


     Parallelization info
     --------------------
     sticks:   dense  smooth     PW     G-vecs:    dense   smooth      PW
     Min        1678     842    240                73062    25813    3844
     Max        1679     843    241                73063    25814    3845
     Sum        3357    1685    481               146125    51627    7689

     Using Slab Decomposition



     bravais-lattice index     =            0
     lattice parameter (alat)  =       8.6738  a.u.
     unit-cell volume          =     652.5813 (a.u.)^3
     number of atoms/cell      =            5
     number of atomic types    =            4
     number of electrons       =        44.00
     number of Kohn-Sham states=           26
     kinetic-energy cutoff     =      70.0000  Ry
     charge density cutoff     =     560.0000  Ry
     scf convergence threshold =      1.0E-07
     mixing beta               =       0.7000
     number of iterations used =            8  plain     mixing
     energy convergence thresh.=      1.0E-04
     force convergence thresh. =      1.0E-03
     Exchange-correlation= SLA  PW   PBX  PBC
                           (   1   4   3   4   0   0   0)
     nstep                     =           50


     celldm(1)=   8.673843  celldm(2)=   0.000000  celldm(3)=   0.000000
     celldm(4)=   0.000000  celldm(5)=   0.000000  celldm(6)=   0.000000

     crystal axes: (cart. coord. in units of alat)
               a(1) = (   1.000000   0.000000   0.000000 )  
               a(2) = (   0.000000   1.000000   0.000000 )  
               a(3) = (   0.000000   0.000000   1.000000 )  

     reciprocal axes: (cart. coord. in units 2 pi/alat)
               b(1) = (  1.000000  0.000000  0.000000 )  
               b(2) = (  0.000000  1.000000  0.000000 )  
               b(3) = (  0.000000  0.000000  1.000000 )  


     PseudoPot. # 1 for Ba read from file:
     /home/bond/Software/qe-7.1/pseudo/Ba.pbe-spn-kjpaw_psl.1.0.0.UPF
     MD5 check sum: 7cfe25f1fe7574a4710541d5a11d6531
     Pseudo is Projector augmented-wave + core cor, Zval = 10.0
     Generated using &quot;atomic&quot; code by A. Dal Corso  v.6.2.2
     Shape of augmentation charge: PSQ
     Using radial grid of 1251 points,  7 beta functions with: 
                l(1) =   0
                l(2) =   0
                l(3) =   0
                l(4) =   1
                l(5) =   1
                l(6) =   2
                l(7) =   2
     Q(r) pseudized with 0 coefficients 


     PseudoPot. # 2 for Bi read from file:
     /home/bond/Software/qe-7.1/pseudo/Bi.pbe-dn-kjpaw_psl.1.0.0.UPF
     MD5 check sum: 266ded784ae3bc462508ed03f0f37963
     Pseudo is Projector augmented-wave + core cor, Zval = 15.0
     Generated using &quot;atomic&quot; code by A. Dal Corso  v.6.2.2
     Shape of augmentation charge: PSQ
     Using radial grid of 1283 points,  6 beta functions with: 
                l(1) =   0
                l(2) =   0
                l(3) =   1
                l(4) =   1
                l(5) =   2
                l(6) =   2
     Q(r) pseudized with 0 coefficients 


     PseudoPot. # 3 for F  read from file:
     /home/bond/Software/qe-7.1/pseudo/F.pbe-n-kjpaw_psl.1.0.0.UPF
     MD5 check sum: 66d718ea72839a4268ab2a9540e8cdd4
     Pseudo is Projector augmented-wave + core cor, Zval =  7.0
     Generated using &quot;atomic&quot; code by A. Dal Corso  v.6.3
     Shape of augmentation charge: PSQ
     Using radial grid of 1105 points,  4 beta functions with: 
                l(1) =   0
                l(2) =   0
                l(3) =   1
                l(4) =   1
     Q(r) pseudized with 0 coefficients 


     PseudoPot. # 4 for O  read from file:
     /home/bond/Software/qe-7.1/pseudo/O.pbe-n-kjpaw_psl.1.0.0.UPF
     MD5 check sum: e99d9cef9b487d1ca56f5b95ecd0fd7a
     Pseudo is Projector augmented-wave + core cor, Zval =  6.0
     Generated using &quot;atomic&quot; code by A. Dal Corso  v.6.3
     Shape of augmentation charge: PSQ
     Using radial grid of 1095 points,  4 beta functions with: 
                l(1) =   0
                l(2) =   0
                l(3) =   1
                l(4) =   1
     Q(r) pseudized with 0 coefficients 


     atomic species   valence    mass     pseudopotential
        Ba            10.00   137.32700     Ba( 1.00)
        Bi            15.00   208.98040     Bi( 1.00)
        F              7.00    18.99840     F ( 1.00)
        O              6.00    15.99900     O ( 1.00)

     16 Sym. Ops., with inversion, found



   Cartesian axes

     site n.     atom                  positions (alat units)
         1           Ba  tau(   1) = (   0.5000000   0.5000000   0.5000000  )
         2           Bi  tau(   2) = (   0.0000000   0.0000000   0.0000000  )
         3           O   tau(   3) = (   0.0000000   0.0000000   0.5000000  )
         4           O   tau(   4) = (   0.5000000   0.0000000   0.0000000  )
         5           F   tau(   5) = (   0.0000000   0.5000000   0.0000000  )

     number of k points=    18  Gaussian smearing, width (Ry)=  0.0200
                       cart. coord. in units 2pi/alat
        k(    1) = (   0.0000000   0.0000000   0.0000000), wk =   0.0160000
        k(    2) = (   0.0000000   0.0000000   0.2000000), wk =   0.0640000
        k(    3) = (   0.0000000   0.0000000   0.4000000), wk =   0.0640000
        k(    4) = (   0.0000000   0.2000000   0.2000000), wk =   0.1280000
        k(    5) = (   0.0000000   0.2000000   0.4000000), wk =   0.1280000
        k(    6) = (   0.0000000   0.4000000   0.4000000), wk =   0.1280000
        k(    7) = (   0.2000000   0.2000000   0.2000000), wk =   0.1280000
        k(    8) = (   0.2000000   0.2000000   0.4000000), wk =   0.2560000
        k(    9) = (   0.2000000   0.4000000   0.4000000), wk =   0.2560000
        k(   10) = (   0.4000000   0.4000000   0.4000000), wk =   0.1280000
        k(   11) = (   0.0000000   0.2000000   0.0000000), wk =   0.0320000
        k(   12) = (   0.0000000   0.4000000   0.0000000), wk =   0.0320000
        k(   13) = (   0.2000000   0.0000000   0.2000000), wk =   0.0640000
        k(   14) = (   0.2000000   0.4000000   0.0000000), wk =   0.1280000
        k(   15) = (   0.4000000   0.0000000   0.2000000), wk =   0.1280000
        k(   16) = (   0.4000000   0.0000000   0.4000000), wk =   0.0640000
        k(   17) = (   0.2000000   0.4000000   0.2000000), wk =   0.1280000
        k(   18) = (   0.4000000   0.2000000   0.4000000), wk =   0.1280000

     Dense  grid:   146125 G-vectors     FFT dimensions: (  72,  72,  72)

     Smooth grid:    51627 G-vectors     FFT dimensions: (  48,  48,  48)

     Estimated max dynamical RAM per process >     332.24 MB

     Estimated total dynamical RAM >     664.48 MB

     Initial potential from superposition of free atoms

     starting charge      43.9822, renormalised to      44.0000
     Starting wfcs are   26 randomized atomic wfcs
     Checking if some PAW data can be deallocated... 

     total cpu time spent up to now is       10.3 secs

     Self-consistent Calculation

     iteration #  1     ecut=    70.00 Ry     beta= 0.70
     Davidson diagonalization with overlap
     ethr =  1.00E-02,  avg # of iterations =  2.8

     total cpu time spent up to now is       21.4 secs

     total energy              =   -1484.42097044 Ry
     estimated scf accuracy    <       1.82319006 Ry

     iteration #  2     ecut=    70.00 Ry     beta= 0.70
     Davidson diagonalization with overlap
     ethr =  4.14E-03,  avg # of iterations =  8.9

     total cpu time spent up to now is       37.3 secs

     total energy              =   -1483.78114978 Ry
     estimated scf accuracy    <      10.10046125 Ry

     iteration #  3     ecut=    70.00 Ry     beta= 0.70
     Davidson diagonalization with overlap
     ethr =  4.14E-03,  avg # of iterations =  5.6

     total cpu time spent up to now is       51.0 secs

     total energy              =   -1485.51688623 Ry
     estimated scf accuracy    <       0.23334090 Ry

     iteration #  4     ecut=    70.00 Ry     beta= 0.70
     Davidson diagonalization with overlap
     ethr =  5.30E-04,  avg # of iterations =  3.5

     total cpu time spent up to now is       62.7 secs

     total energy              =   -1485.55153994 Ry
     estimated scf accuracy    <       0.05505327 Ry

     iteration #  5     ecut=    70.00 Ry     beta= 0.70
     Davidson diagonalization with overlap
     ethr =  1.25E-04,  avg # of iterations =  4.4

     total cpu time spent up to now is       74.0 secs

     total energy              =   -1485.54107454 Ry
     estimated scf accuracy    <       0.02902518 Ry

     iteration #  6     ecut=    70.00 Ry     beta= 0.70
     Davidson diagonalization with overlap
     ethr =  6.60E-05,  avg # of iterations =  7.1

     total cpu time spent up to now is       87.8 secs

     total energy              =   -1485.54774604 Ry
     estimated scf accuracy    <       0.00093226 Ry

     iteration #  7     ecut=    70.00 Ry     beta= 0.70
     Davidson diagonalization with overlap
     c_bands:  1 eigenvalues not converged
     c_bands:  1 eigenvalues not converged
     c_bands:  2 eigenvalues not converged
     c_bands:  1 eigenvalues not converged
     ethr =  2.12E-06,  avg # of iterations = 13.6

     total cpu time spent up to now is      105.9 secs

     total energy              =   -1485.54841883 Ry
     estimated scf accuracy    <       0.00028171 Ry

     iteration #  8     ecut=    70.00 Ry     beta= 0.70
     Davidson diagonalization with overlap
     ethr =  6.40E-07,  avg # of iterations =  4.7

     total cpu time spent up to now is      117.6 secs

     total energy              =   -1485.54845226 Ry
     estimated scf accuracy    <       0.00002801 Ry

     iteration #  9     ecut=    70.00 Ry     beta= 0.70
     Davidson diagonalization with overlap
     c_bands:  1 eigenvalues not converged
     ethr =  6.37E-08,  avg # of iterations =  6.6

     total cpu time spent up to now is      131.5 secs

     total energy              =   -1485.54847285 Ry
     estimated scf accuracy    <       0.00001488 Ry

     iteration # 10     ecut=    70.00 Ry     beta= 0.70
     Davidson diagonalization with overlap
     ethr =  3.38E-08,  avg # of iterations =  1.7

     total cpu time spent up to now is      141.6 secs

     total energy              =   -1485.54847169 Ry
     estimated scf accuracy    <       0.00000567 Ry

     iteration # 11     ecut=    70.00 Ry     beta= 0.70
     Davidson diagonalization with overlap
     ethr =  1.29E-08,  avg # of iterations =  5.1

     total cpu time spent up to now is      154.0 secs

     total energy              =   -1485.54847342 Ry
     estimated scf accuracy    <       0.00000038 Ry

     iteration # 12     ecut=    70.00 Ry     beta= 0.70
     Davidson diagonalization with overlap
     ethr =  8.57E-10,  avg # of iterations =  4.7

     total cpu time spent up to now is      167.7 secs

     End of self-consistent calculation

          k = 0.0000 0.0000 0.0000 (  6451 PWs)   bands (ev):

   -19.2319 -16.0094 -13.6002 -13.5784 -13.5784 -13.3847 -13.2935  -8.3232
    -7.0960  -4.3575  -4.3575  -4.1701   1.1973   1.2390   2.7598   2.7598
     4.4842   4.4842   6.6562   7.0544   7.3220   7.3220  11.1993  11.2431
    12.1191  13.0338

          k = 0.0000 0.0000 0.2000 (  6471 PWs)   bands (ev):

   -19.2263 -16.0131 -13.5801 -13.5784 -13.5746 -13.3864 -13.2797  -8.2554
    -7.2676  -4.3487  -4.3418  -4.1554   0.4721   1.1974   2.7031   2.8869
     4.5422   5.5234   6.6268   6.9760   7.2481   7.2938  11.4222  11.7929
    12.5859  13.0786

          k = 0.0000 0.0000 0.4000 (  6479 PWs)   bands (ev):

   -19.2172 -16.0191 -13.5830 -13.5783 -13.5384 -13.3893 -13.2502  -8.0338
    -7.6588  -4.3383  -4.3159  -4.1315  -0.2422   1.1969   2.6114   2.8478
     4.6443   6.3287   6.5189   6.9302   7.1238   8.3209  11.5558  12.6955
    13.1397  13.3035

          k = 0.0000 0.2000 0.2000 (  6456 PWs)   bands (ev):

   -19.2225 -15.9000 -13.5822 -13.5804 -13.5754 -13.4256 -13.3863  -8.3276
    -7.2610  -4.3613  -4.3305  -4.1374  -0.4173   2.5440   2.8137   2.9582
     4.3967   5.4378   6.4791   6.8361   7.1445   7.3170  11.7333  12.0792
    12.9554  13.1220

          k = 0.0000 0.2000 0.4000 (  6460 PWs)   bands (ev):

   -19.2138 -15.9060 -13.5848 -13.5803 -13.5457 -13.3920 -13.3891  -8.0690
    -7.6611  -4.3797  -4.3074  -4.1446  -0.9590   2.4182   2.7292   2.8620
     4.5197   6.3280   6.6174   6.8158   6.9945   8.3972  11.8755  12.7933
    13.1378  13.1543

          k = 0.0000 0.4000 0.4000 (  6432 PWs)   bands (ev):

   -19.2084 -15.6880 -13.6970 -13.5876 -13.5836 -13.5179 -13.3889  -8.1241
    -7.6644  -4.4422  -4.2935  -4.1690  -1.5141   2.8812   2.9669   3.9736
     4.2701   6.3071   6.6600   6.7032   6.8016   8.6169  11.7128  12.5768
    13.0512  13.1836

          k = 0.2000 0.2000 0.2000 (  6463 PWs)   bands (ev):

   -19.2178 -15.9019 -13.5822 -13.5820 -13.5455 -13.4165 -13.3880  -8.2588
    -7.3925  -4.3673  -4.3495  -4.1362  -0.8866   2.3432   2.8964   2.9831
     5.0555   5.7736   6.5704   6.8040   7.1445   7.4300  12.0415  12.1603
    12.8053  13.0260

          k = 0.2000 0.2000 0.4000 (  6452 PWs)   bands (ev):

   -19.2101 -15.9051 -13.5848 -13.5821 -13.5078 -13.3907 -13.3893  -8.0458
    -7.7125  -4.3931  -4.3524  -4.1466  -1.4615   2.2653   2.8939   2.9666
     5.4637   6.1752   6.6009   6.7745   7.3722   8.4877  12.0378  12.0604
    13.0757  13.2343

          k = 0.2000 0.4000 0.4000 (  6453 PWs)   bands (ev):

   -19.2048 -15.6869 -13.6816 -13.5880 -13.5855 -13.4956 -13.3907  -8.0780
    -7.6987  -4.4547  -4.3651  -4.2005  -1.9930   2.9343   3.0459   3.7223
     5.3952   6.3549   6.5603   6.7805   7.2696   8.7032  10.9461  12.2046
    12.7005  13.1985

          k = 0.4000 0.4000 0.4000 (  6443 PWs)   bands (ev):

   -19.1990 -15.6851 -13.6633 -13.5886 -13.5884 -13.4509 -13.3937  -7.9544
    -7.8046  -4.4779  -4.4679  -4.2570  -2.6175   3.0500   3.1101   3.6622
     6.3230   6.7450   6.8099   6.9359   7.7595   9.3537  10.1378  11.3823
    11.6870  14.2032

          k = 0.0000 0.2000 0.0000 (  6471 PWs)   bands (ev):

   -19.2278 -15.8963 -13.6000 -13.5805 -13.5805 -13.4390 -13.3847  -8.4114
    -7.0926  -4.3446  -4.3446  -4.1395   0.0282   2.8655   2.8655   2.9361
     4.3284   4.3284   6.3617   6.8468   7.2312   7.2312  11.4756  11.6899
    12.8323  13.1025

          k = 0.0000 0.4000 0.0000 (  6479 PWs)   bands (ev):

   -19.2213 -15.6778 -13.7114 -13.5997 -13.5841 -13.5841 -13.3846  -8.5454
    -7.0870  -4.3235  -4.3235  -4.0969  -0.5357   3.0983   3.0983   4.0160
     4.0160   4.6708   5.7660   6.5636   7.1006   7.1006  11.6465  12.4179
    13.2219  13.6332

          k = 0.2000 0.0000 0.2000 (  6456 PWs)   bands (ev):

   -19.2214 -16.0150 -13.5801 -13.5800 -13.5457 -13.3881 -13.2682  -8.2025
    -7.4044  -4.3580  -4.3315  -4.1427  -0.1857   1.2056   2.8248   2.9138
     5.1719   5.8329   6.6251   6.8689   7.0986   7.4661  11.9629  11.9663
    12.8816  13.0022

          k = 0.2000 0.4000 0.0000 (  6460 PWs)   bands (ev):

   -19.2164 -15.6817 -13.7040 -13.5854 -13.5839 -13.5710 -13.3862  -8.4384
    -7.2501  -4.3707  -4.3121  -4.1241  -0.9801   3.0206   3.0483   3.9694
     4.1058   5.5204   6.0818   6.6484   6.9936   7.3607  11.7493  12.5991
    13.2052  13.4080

          k = 0.4000 0.0000 0.2000 (  6460 PWs)   bands (ev):

   -19.2134 -16.0182 -13.5829 -13.5799 -13.5038 -13.3906 -13.2426  -8.0255
    -7.7209  -4.3556  -4.3343  -4.1220  -0.8744   1.2184   2.8326   2.9276
     5.5292   6.0890   6.5414   6.7963   7.4080   8.4260  12.0120  12.6688
    12.9934  13.2678

          k = 0.4000 0.0000 0.4000 (  6432 PWs)   bands (ev):

   -19.2072 -16.0168 -13.5826 -13.5826 -13.4511 -13.3928 -13.2246  -7.9773
    -7.8603  -4.3780  -4.3679  -4.1065  -1.5848   1.2535   2.9869   3.0371
     5.8003   6.5717   6.6035   6.8237   7.7556   9.2074  12.2875  12.5088
    12.9224  13.1913

          k = 0.2000 0.4000 0.2000 (  6452 PWs)   bands (ev):

   -19.2119 -15.6837 -13.6929 -13.5858 -13.5851 -13.5452 -13.3879  -8.3460
    -7.3730  -4.3826  -4.3551  -4.1525  -1.4313   2.9422   3.1074   3.7521
     4.8686   5.8406   6.3050   6.7232   7.2858   7.3260  11.4480  12.7377
    13.1766  13.3771

          k = 0.4000 0.2000 0.4000 (  6453 PWs)   bands (ev):

   -19.2041 -15.9036 -13.5849 -13.5848 -13.4511 -13.3932 -13.3786  -7.9687
    -7.8393  -4.4159  -4.4087  -4.1625  -2.0941   2.2216   3.0143   3.0647
     5.9901   6.6598   6.6796   6.8551   7.7652   9.2280  11.3833  11.9730
    12.2715  13.5825

     the Fermi energy is     9.7539 ev

!    total energy              =   -1485.54847359 Ry
     total all-electron energy =    -59834.206087 Ry
     estimated scf accuracy    <       0.00000002 Ry
     smearing contrib. (-TS)   =      -0.00020534 Ry
     internal energy E=F+TS    =   -1485.54826825 Ry

     The total energy is F=E-TS. E is the sum of the following terms:
     one-electron contribution =    -111.22273703 Ry
     hartree contribution      =      86.48510645 Ry
     xc contribution           =     -77.34696149 Ry
     ewald contribution        =    -221.56963756 Ry
     one-center paw contrib.   =   -1161.89403863 Ry

     convergence has been achieved in  12 iterations

     Forces acting on atoms (cartesian axes, Ry/au):

     atom    1 type  1   force =     0.00000000    0.00000000    0.00000000
     atom    2 type  2   force =     0.00000000    0.00000000    0.00000000
     atom    3 type  4   force =     0.00000000    0.00000000    0.00000000
     atom    4 type  4   force =     0.00000000    0.00000000    0.00000000
     atom    5 type  3   force =     0.00000000    0.00000000    0.00000000

     Total force =     0.000000     Total SCF correction =     0.000000


     Computing stress (Cartesian axis) and pressure

          total   stress  (Ry/bohr**3)                   (kbar)     P=        6.46
   0.00005450   0.00000000   0.00000000            8.02        0.00        0.00
   0.00000000   0.00002268   0.00000000            0.00        3.34        0.00
   0.00000000   0.00000000   0.00005450            0.00        0.00        8.02


     BFGS Geometry Optimization
     Energy error            =      0.0E+00 Ry
     Gradient error          =      0.0E+00 Ry/Bohr

     bfgs converged in   1 scf cycles and   0 bfgs steps
     (criteria: energy <  1.0E-04 Ry, force <  1.0E-03 Ry/Bohr)

     End of BFGS Geometry Optimization

     Final energy             =   -1485.5484735904 Ry
Begin final coordinates

ATOMIC_POSITIONS (angstrom)
Ba            2.2950000000        2.2950000000        2.2950000000
Bi            0.0000000000        0.0000000000        0.0000000000
O             0.0000000000        0.0000000000        2.2950000000
O             2.2950000000        0.0000000000        0.0000000000
F             0.0000000000        2.2950000000        0.0000000000
End final coordinates



     init_run     :      6.63s CPU      8.46s WALL (       1 calls)
     electrons    :    115.70s CPU    157.39s WALL (       1 calls)
     forces       :      1.98s CPU      3.16s WALL (       1 calls)
     stress       :      9.25s CPU     15.50s WALL (       1 calls)

     Called by init_run:
     wfcinit      :      2.48s CPU      2.61s WALL (       1 calls)
     potinit      :      1.14s CPU      1.68s WALL (       1 calls)
     hinit0       :      1.85s CPU      2.68s WALL (       1 calls)

     Called by electrons:
     c_bands      :     77.72s CPU    100.54s WALL (      12 calls)
     sum_band     :     20.09s CPU     30.24s WALL (      12 calls)
     v_of_rho     :      2.34s CPU      3.29s WALL (      13 calls)
     newd         :      9.56s CPU     14.94s WALL (      13 calls)
     PAW_pot      :      7.11s CPU      9.94s WALL (      13 calls)
     mix_rho      :      0.33s CPU      0.45s WALL (      12 calls)

     Called by c_bands:
     init_us_2    :      1.52s CPU      2.10s WALL (     486 calls)
     init_us_2:cp :      1.51s CPU      2.10s WALL (     486 calls)
     cegterg      :     74.10s CPU     95.92s WALL (     216 calls)

     Called by *egterg:
     cdiaghg      :      1.89s CPU      2.65s WALL (    1451 calls)
     h_psi        :     57.38s CPU     73.52s WALL (    1469 calls)
     s_psi        :      2.56s CPU      3.47s WALL (    1469 calls)
     g_psi        :      0.28s CPU      0.42s WALL (    1235 calls)

     Called by h_psi:
     h_psi:calbec :      3.61s CPU      4.75s WALL (    1469 calls)
     vloc_psi     :     50.73s CPU     64.81s WALL (    1469 calls)
     add_vuspsi   :      2.78s CPU      3.65s WALL (    1469 calls)

     General routines
     calbec       :      5.02s CPU      6.54s WALL (    1775 calls)
     fft          :      2.33s CPU      3.17s WALL (     192 calls)
     ffts         :      0.40s CPU      0.40s WALL (      25 calls)
     fftw         :     52.90s CPU     67.99s WALL (   38388 calls)
     interpolate  :      0.51s CPU      0.56s WALL (      13 calls)

     Parallel routines

     PWSCF        :   2m14.66s CPU   3m 6.40s WALL


   This run was terminated on:  22:56:58   6May2024            

=------------------------------------------------------------------------------=
   JOB DONE.
=------------------------------------------------------------------------------=
