
     Program PWSCF v.7.1 starts on  6May2024 at 22:47:43 

     This program is part of the open-source Quantum ESPRESSO suite
     for quantum simulation of materials; please cite
         "P. Giannozzi et al., J. Phys.:Condens. Matter 21 395502 (2009);
         "P. Giannozzi et al., J. Phys.:Condens. Matter 29 465901 (2017);
         "P. Giannozzi et al., J. Chem. Phys. 152 154105 (2020);
          URL http://www.quantum-espresso.org", 
     in publications or presentations arising from this work. More details at
     http://www.quantum-espresso.org/quote

     Parallel version (MPI), running on     2 processors

     MPI processes distributed on     1 nodes
     13578 MiB available memory on the printing compute node when the environment starts

     Waiting for input...
     Reading input from standard input
Warning: card &CELL ignored
Warning: card / ignored

     Current dimensions of program PWSCF are:
     Max number of different atomic species (ntypx) = 10
     Max number of k-points (npk) =  40000
     Max angular momentum in pseudopotentials (lmaxx) =  4
     file Ba.pbe-spn-kjpaw_psl.1.0.0.UPF: wavefunction(s)  5S 6S renormalized
     file Bi.pbe-dn-kjpaw_psl.1.0.0.UPF: wavefunction(s)  6P 5D renormalized
     file F.pbe-n-kjpaw_psl.1.0.0.UPF: wavefunction(s)  2S 2P renormalized
     file O.pbe-n-kjpaw_psl.1.0.0.UPF: wavefunction(s)  2S 2P renormalized
     Message from routine setup:
     using ibrav=0 with symmetry is DISCOURAGED, use correct ibrav instead

     R & G space division:  proc/nbgrp/npool/nimage =       2
     Subspace diagonalization in iterative solution of the eigenvalue problem:
     a serial algorithm will be used


     Parallelization info
     --------------------
     sticks:   dense  smooth     PW     G-vecs:    dense   smooth      PW
     Min        1656     824    236                71974    25364    3760
     Max        1657     825    237                71979    25369    3761
     Sum        3313    1649    473               143953    50733    7521

     Using Slab Decomposition



     bravais-lattice index     =            0
     lattice parameter (alat)  =       8.6360  a.u.
     unit-cell volume          =     644.0880 (a.u.)^3
     number of atoms/cell      =            5
     number of atomic types    =            4
     number of electrons       =        44.00
     number of Kohn-Sham states=           26
     kinetic-energy cutoff     =      70.0000  Ry
     charge density cutoff     =     560.0000  Ry
     scf convergence threshold =      1.0E-07
     mixing beta               =       0.7000
     number of iterations used =            8  plain     mixing
     energy convergence thresh.=      1.0E-04
     force convergence thresh. =      1.0E-03
     Exchange-correlation= SLA  PW   PBX  PBC
                           (   1   4   3   4   0   0   0)
     nstep                     =           50


     celldm(1)=   8.636048  celldm(2)=   0.000000  celldm(3)=   0.000000
     celldm(4)=   0.000000  celldm(5)=   0.000000  celldm(6)=   0.000000

     crystal axes: (cart. coord. in units of alat)
               a(1) = (   1.000000   0.000000   0.000000 )  
               a(2) = (   0.000000   1.000000   0.000000 )  
               a(3) = (   0.000000   0.000000   1.000000 )  

     reciprocal axes: (cart. coord. in units 2 pi/alat)
               b(1) = (  1.000000  0.000000  0.000000 )  
               b(2) = (  0.000000  1.000000  0.000000 )  
               b(3) = (  0.000000  0.000000  1.000000 )  


     PseudoPot. # 1 for Ba read from file:
     /home/bond/Software/qe-7.1/pseudo/Ba.pbe-spn-kjpaw_psl.1.0.0.UPF
     MD5 check sum: 7cfe25f1fe7574a4710541d5a11d6531
     Pseudo is Projector augmented-wave + core cor, Zval = 10.0
     Generated using &quot;atomic&quot; code by A. Dal Corso  v.6.2.2
     Shape of augmentation charge: PSQ
     Using radial grid of 1251 points,  7 beta functions with: 
                l(1) =   0
                l(2) =   0
                l(3) =   0
                l(4) =   1
                l(5) =   1
                l(6) =   2
                l(7) =   2
     Q(r) pseudized with 0 coefficients 


     PseudoPot. # 2 for Bi read from file:
     /home/bond/Software/qe-7.1/pseudo/Bi.pbe-dn-kjpaw_psl.1.0.0.UPF
     MD5 check sum: 266ded784ae3bc462508ed03f0f37963
     Pseudo is Projector augmented-wave + core cor, Zval = 15.0
     Generated using &quot;atomic&quot; code by A. Dal Corso  v.6.2.2
     Shape of augmentation charge: PSQ
     Using radial grid of 1283 points,  6 beta functions with: 
                l(1) =   0
                l(2) =   0
                l(3) =   1
                l(4) =   1
                l(5) =   2
                l(6) =   2
     Q(r) pseudized with 0 coefficients 


     PseudoPot. # 3 for F  read from file:
     /home/bond/Software/qe-7.1/pseudo/F.pbe-n-kjpaw_psl.1.0.0.UPF
     MD5 check sum: 66d718ea72839a4268ab2a9540e8cdd4
     Pseudo is Projector augmented-wave + core cor, Zval =  7.0
     Generated using &quot;atomic&quot; code by A. Dal Corso  v.6.3
     Shape of augmentation charge: PSQ
     Using radial grid of 1105 points,  4 beta functions with: 
                l(1) =   0
                l(2) =   0
                l(3) =   1
                l(4) =   1
     Q(r) pseudized with 0 coefficients 


     PseudoPot. # 4 for O  read from file:
     /home/bond/Software/qe-7.1/pseudo/O.pbe-n-kjpaw_psl.1.0.0.UPF
     MD5 check sum: e99d9cef9b487d1ca56f5b95ecd0fd7a
     Pseudo is Projector augmented-wave + core cor, Zval =  6.0
     Generated using &quot;atomic&quot; code by A. Dal Corso  v.6.3
     Shape of augmentation charge: PSQ
     Using radial grid of 1095 points,  4 beta functions with: 
                l(1) =   0
                l(2) =   0
                l(3) =   1
                l(4) =   1
     Q(r) pseudized with 0 coefficients 


     atomic species   valence    mass     pseudopotential
        Ba            10.00   137.32700     Ba( 1.00)
        Bi            15.00   208.98040     Bi( 1.00)
        F              7.00    18.99840     F ( 1.00)
        O              6.00    15.99900     O ( 1.00)

     16 Sym. Ops., with inversion, found



   Cartesian axes

     site n.     atom                  positions (alat units)
         1           Ba  tau(   1) = (   0.5000000   0.5000000   0.5000000  )
         2           Bi  tau(   2) = (   0.0000000   0.0000000   0.0000000  )
         3           O   tau(   3) = (   0.0000000   0.0000000   0.5000000  )
         4           O   tau(   4) = (   0.5000000   0.0000000   0.0000000  )
         5           F   tau(   5) = (   0.0000000   0.5000000   0.0000000  )

     number of k points=    18  Gaussian smearing, width (Ry)=  0.0200
                       cart. coord. in units 2pi/alat
        k(    1) = (   0.0000000   0.0000000   0.0000000), wk =   0.0160000
        k(    2) = (   0.0000000   0.0000000   0.2000000), wk =   0.0640000
        k(    3) = (   0.0000000   0.0000000   0.4000000), wk =   0.0640000
        k(    4) = (   0.0000000   0.2000000   0.2000000), wk =   0.1280000
        k(    5) = (   0.0000000   0.2000000   0.4000000), wk =   0.1280000
        k(    6) = (   0.0000000   0.4000000   0.4000000), wk =   0.1280000
        k(    7) = (   0.2000000   0.2000000   0.2000000), wk =   0.1280000
        k(    8) = (   0.2000000   0.2000000   0.4000000), wk =   0.2560000
        k(    9) = (   0.2000000   0.4000000   0.4000000), wk =   0.2560000
        k(   10) = (   0.4000000   0.4000000   0.4000000), wk =   0.1280000
        k(   11) = (   0.0000000   0.2000000   0.0000000), wk =   0.0320000
        k(   12) = (   0.0000000   0.4000000   0.0000000), wk =   0.0320000
        k(   13) = (   0.2000000   0.0000000   0.2000000), wk =   0.0640000
        k(   14) = (   0.2000000   0.4000000   0.0000000), wk =   0.1280000
        k(   15) = (   0.4000000   0.0000000   0.2000000), wk =   0.1280000
        k(   16) = (   0.4000000   0.0000000   0.4000000), wk =   0.0640000
        k(   17) = (   0.2000000   0.4000000   0.2000000), wk =   0.1280000
        k(   18) = (   0.4000000   0.2000000   0.4000000), wk =   0.1280000

     Dense  grid:   143953 G-vectors     FFT dimensions: (  72,  72,  72)

     Smooth grid:    50733 G-vectors     FFT dimensions: (  45,  45,  45)

     Estimated max dynamical RAM per process >     327.70 MB

     Estimated total dynamical RAM >     655.41 MB

     Initial potential from superposition of free atoms

     starting charge      43.9822, renormalised to      44.0000
     Starting wfcs are   26 randomized atomic wfcs
     Checking if some PAW data can be deallocated... 

     total cpu time spent up to now is        9.6 secs

     Self-consistent Calculation

     iteration #  1     ecut=    70.00 Ry     beta= 0.70
     Davidson diagonalization with overlap
     ethr =  1.00E-02,  avg # of iterations =  2.4

     total cpu time spent up to now is       20.3 secs

     total energy              =   -1484.42873298 Ry
     estimated scf accuracy    <       1.80883280 Ry

     iteration #  2     ecut=    70.00 Ry     beta= 0.70
     Davidson diagonalization with overlap
     ethr =  4.11E-03,  avg # of iterations =  8.4

     total cpu time spent up to now is       36.3 secs

     total energy              =   -1483.85197691 Ry
     estimated scf accuracy    <       9.64324939 Ry

     iteration #  3     ecut=    70.00 Ry     beta= 0.70
     Davidson diagonalization with overlap
     ethr =  4.11E-03,  avg # of iterations =  5.6

     total cpu time spent up to now is       49.8 secs

     total energy              =   -1485.51530520 Ry
     estimated scf accuracy    <       0.23053150 Ry

     iteration #  4     ecut=    70.00 Ry     beta= 0.70
     Davidson diagonalization with overlap
     ethr =  5.24E-04,  avg # of iterations =  3.2

     total cpu time spent up to now is       61.5 secs

     total energy              =   -1485.54950156 Ry
     estimated scf accuracy    <       0.04925758 Ry

     iteration #  5     ecut=    70.00 Ry     beta= 0.70
     Davidson diagonalization with overlap
     ethr =  1.12E-04,  avg # of iterations =  4.4

     total cpu time spent up to now is       73.3 secs

     total energy              =   -1485.54079089 Ry
     estimated scf accuracy    <       0.02625045 Ry

     iteration #  6     ecut=    70.00 Ry     beta= 0.70
     Davidson diagonalization with overlap
     ethr =  5.97E-05,  avg # of iterations =  6.7

     total cpu time spent up to now is       86.7 secs

     total energy              =   -1485.54692639 Ry
     estimated scf accuracy    <       0.00101683 Ry

     iteration #  7     ecut=    70.00 Ry     beta= 0.70
     Davidson diagonalization with overlap
     c_bands:  1 eigenvalues not converged
     c_bands:  2 eigenvalues not converged
     c_bands:  1 eigenvalues not converged
     c_bands:  1 eigenvalues not converged
     c_bands:  1 eigenvalues not converged
     ethr =  2.31E-06,  avg # of iterations = 12.7

     total cpu time spent up to now is      103.9 secs

     total energy              =   -1485.54755290 Ry
     estimated scf accuracy    <       0.00021536 Ry

     iteration #  8     ecut=    70.00 Ry     beta= 0.70
     Davidson diagonalization with overlap
     c_bands:  1 eigenvalues not converged
     ethr =  4.89E-07,  avg # of iterations =  6.6

     total cpu time spent up to now is      116.3 secs

     total energy              =   -1485.54759025 Ry
     estimated scf accuracy    <       0.00001407 Ry

     iteration #  9     ecut=    70.00 Ry     beta= 0.70
     Davidson diagonalization with overlap
     c_bands:  1 eigenvalues not converged
     ethr =  3.20E-08,  avg # of iterations =  6.8

     total cpu time spent up to now is      130.9 secs

     total energy              =   -1485.54760321 Ry
     estimated scf accuracy    <       0.00000990 Ry

     iteration # 10     ecut=    70.00 Ry     beta= 0.70
     Davidson diagonalization with overlap
     ethr =  2.25E-08,  avg # of iterations =  2.0

     total cpu time spent up to now is      142.5 secs

     total energy              =   -1485.54760283 Ry
     estimated scf accuracy    <       0.00000349 Ry

     iteration # 11     ecut=    70.00 Ry     beta= 0.70
     Davidson diagonalization with overlap
     ethr =  7.93E-09,  avg # of iterations =  4.6

     total cpu time spent up to now is      154.9 secs

     total energy              =   -1485.54760387 Ry
     estimated scf accuracy    <       0.00000020 Ry

     iteration # 12     ecut=    70.00 Ry     beta= 0.70
     Davidson diagonalization with overlap
     ethr =  4.52E-10,  avg # of iterations =  4.4

     total cpu time spent up to now is      169.0 secs

     End of self-consistent calculation

          k = 0.0000 0.0000 0.0000 (  6403 PWs)   bands (ev):

   -19.0381 -15.9106 -13.4176 -13.3787 -13.3787 -13.1842 -13.0962  -8.2073
    -6.9414  -4.1678  -4.1678  -3.9784   1.2897   1.4886   2.8668   2.8668
     4.6028   4.6028   6.7926   7.1859   7.4598   7.4598  11.3724  11.4069
    12.3262  13.2235

          k = 0.0000 0.0000 0.2000 (  6399 PWs)   bands (ev):

   -19.0320 -15.9147 -13.3903 -13.3806 -13.3786 -13.1861 -13.0811  -8.1394
    -7.1212  -4.1576  -4.1508  -3.9626   0.6823   1.2892   2.8072   3.0000
     4.6618   5.6725   6.7602   7.1076   7.3855   7.4388  11.5978  11.9670
    12.8032  13.2741

          k = 0.0000 0.0000 0.4000 (  6391 PWs)   bands (ev):

   -19.0220 -15.9213 -13.3836 -13.3785 -13.3520 -13.1891 -13.0487  -7.9151
    -7.5283  -4.1455  -4.1230  -3.9369  -0.0474   1.2875   2.7108   2.9558
     4.7657   6.4571   6.6446   7.0656   7.2605   8.5206  11.7494  12.8910
    13.3420  13.5262

          k = 0.0000 0.2000 0.2000 (  6390 PWs)   bands (ev):

   -19.0279 -15.7998 -13.3911 -13.3828 -13.3809 -13.2301 -13.1859  -8.2165
    -7.1143  -4.1710  -4.1387  -3.9429  -0.2553   2.6835   2.9200   3.0764
     4.5133   5.5844   6.6193   6.9649   7.2790   7.4634  11.9163  12.2635
    13.1674  13.3170

          k = 0.0000 0.2000 0.4000 (  6382 PWs)   bands (ev):

   -19.0184 -15.8065 -13.3856 -13.3807 -13.3595 -13.1937 -13.1890  -7.9529
    -7.5312  -4.1893  -4.1139  -3.9504  -0.8000   2.5528   2.8314   2.9702
     4.6386   6.4566   6.7509   6.9492   7.1273   8.6001  12.0730  13.0189
    13.3490  13.3560

          k = 0.0000 0.4000 0.4000 (  6346 PWs)   bands (ev):

   -19.0125 -15.5857 -13.5076 -13.3886 -13.3844 -13.3287 -13.1887  -8.0118
    -7.5352  -4.2552  -4.0992  -3.9761  -1.3632   2.9891   3.0752   4.1300
     4.3831   6.4414   6.7972   6.8378   6.9290   8.8308  11.9452  12.7847
    13.2574  13.3838

          k = 0.2000 0.2000 0.2000 (  6385 PWs)   bands (ev):

   -19.0227 -15.8019 -13.3828 -13.3826 -13.3592 -13.2203 -13.1877  -8.1471
    -7.2521  -4.1774  -4.1586  -3.9412  -0.7331   2.4673   3.0105   3.0963
     5.1823   5.9194   6.7122   6.9327   7.3053   7.5695  12.2364  12.3433
    13.0138  13.2286

          k = 0.2000 0.2000 0.4000 (  6384 PWs)   bands (ev):

   -19.0144 -15.8055 -13.3856 -13.3827 -13.3189 -13.1910 -13.1905  -7.9303
    -7.5859  -4.2038  -4.1616  -3.9522  -1.3156   2.3858   3.0048   3.0793
     5.6021   6.3005   6.7321   6.9072   7.5132   8.6965  12.2431  12.2726
    13.2765  13.4462

          k = 0.2000 0.4000 0.4000 (  6356 PWs)   bands (ev):

   -19.0087 -15.5845 -13.4904 -13.3890 -13.3863 -13.3053 -13.1906  -7.9650
    -7.5718  -4.2689  -4.1749  -4.0091  -1.8568   3.0441   3.1594   3.8649
     5.5350   6.4864   6.6975   6.9145   7.4090   8.9222  11.1548  12.4237
    12.9075  13.4021

          k = 0.4000 0.4000 0.4000 (  6365 PWs)   bands (ev):

   -19.0025 -15.5826 -13.4704 -13.3898 -13.3895 -13.2578 -13.1938  -7.8387
    -7.6833  -4.2939  -4.2831  -4.0689  -2.4971   3.1652   3.2279   3.8057
     6.4557   6.8948   6.9487   7.0762   7.9040   9.5809  10.3367  11.5885
    11.9059  14.3256

          k = 0.0000 0.2000 0.0000 (  6399 PWs)   bands (ev):

   -19.0337 -15.7957 -13.4174 -13.3810 -13.3810 -13.2447 -13.1841  -8.3013
    -6.9378  -4.1539  -4.1539  -3.9455   0.1933   2.9742   2.9742   3.1209
     4.4438   4.4438   6.4983   6.9737   7.3666   7.3666  11.6576  11.8628
    13.0476  13.2926

          k = 0.0000 0.4000 0.0000 (  6391 PWs)   bands (ev):

   -19.0266 -15.5744 -13.5222 -13.4170 -13.3848 -13.3848 -13.1840  -8.4435
    -6.9319  -4.1312  -4.1312  -3.9000  -0.3669   3.2122   3.2122   4.1240
     4.1240   4.8613   5.9112   6.6847   7.2327   7.2327  11.8548  12.6057
    13.4144  13.8680

          k = 0.2000 0.0000 0.2000 (  6390 PWs)   bands (ev):

   -19.0266 -15.9169 -13.3805 -13.3804 -13.3593 -13.1878 -13.0686  -8.0869
    -7.2645  -4.1676  -4.1391  -3.9490  -0.0010   1.2971   2.9351   3.0257
     5.3012   5.9830   6.7579   6.9979   7.2567   7.6063  12.1432  12.1466
    13.1070  13.2014

          k = 0.2000 0.4000 0.0000 (  6382 PWs)   bands (ev):

   -19.0212 -15.5787 -13.5144 -13.3863 -13.3861 -13.3846 -13.1858  -8.3343
    -7.1029  -4.1807  -4.1191  -3.9287  -0.8215   3.1325   3.1601   4.1127
     4.2155   5.6699   6.2377   6.7741   7.1242   7.5143  11.9681  12.7918
    13.4010  13.6246

          k = 0.4000 0.0000 0.2000 (  6382 PWs)   bands (ev):

   -19.0179 -15.9204 -13.3835 -13.3803 -13.3147 -13.1906 -13.0406  -7.9082
    -7.5943  -4.1644  -4.1420  -3.9268  -0.7042   1.3095   2.9413   3.0388
     5.6683   6.2122   6.6675   6.9277   7.5495   8.6323  12.2198  12.8658
    13.1939  13.4928

          k = 0.4000 0.0000 0.4000 (  6346 PWs)   bands (ev):

   -19.0113 -15.9189 -13.3833 -13.3832 -13.2580 -13.1929 -13.0210  -7.8618
    -7.7414  -4.1885  -4.1776  -3.9103  -1.4319   1.3453   3.1003   3.1524
     5.9178   6.6981   6.7292   6.9770   7.8998   9.4365  12.4900  12.7550
    13.1633  13.4226

          k = 0.2000 0.4000 0.2000 (  6384 PWs)   bands (ev):

   -19.0164 -15.5809 -13.5023 -13.3867 -13.3859 -13.3588 -13.1877  -8.2401
    -7.2316  -4.1935  -4.1641  -3.9585  -1.2845   3.0508   3.2231   3.8909
     4.9919   5.9818   6.4566   6.8516   7.4627   7.4628  11.6633  12.9318
    13.3835  13.5900

          k = 0.4000 0.2000 0.4000 (  6356 PWs)   bands (ev):

   -19.0079 -15.8039 -13.3857 -13.3856 -13.2579 -13.1932 -13.1791  -7.8531
    -7.7195  -4.2285  -4.2208  -3.9692  -1.9613   2.3401   3.1287   3.1810
     6.1130   6.7935   6.8110   7.0044   7.9098   9.4566  11.5820  12.1965
    12.5034  13.7850

     the Fermi energy is     9.9677 ev

!    total energy              =   -1485.54760398 Ry
     total all-electron energy =    -59834.205217 Ry
     estimated scf accuracy    <       0.00000002 Ry
     smearing contrib. (-TS)   =      -0.00023978 Ry
     internal energy E=F+TS    =   -1485.54736420 Ry

     The total energy is F=E-TS. E is the sum of the following terms:
     one-electron contribution =    -109.76827674 Ry
     hartree contribution      =      86.03672115 Ry
     xc contribution           =     -77.37944427 Ry
     ewald contribution        =    -222.53930774 Ry
     one-center paw contrib.   =   -1161.89705660 Ry

     convergence has been achieved in  12 iterations

     Forces acting on atoms (cartesian axes, Ry/au):

     atom    1 type  1   force =     0.00000000    0.00000000    0.00000000
     atom    2 type  2   force =     0.00000000    0.00000000    0.00000000
     atom    3 type  4   force =     0.00000000    0.00000000    0.00000000
     atom    4 type  4   force =     0.00000000    0.00000000    0.00000000
     atom    5 type  3   force =     0.00000000    0.00000000    0.00000000

     Total force =     0.000000     Total SCF correction =     0.000000


     Computing stress (Cartesian axis) and pressure

          total   stress  (Ry/bohr**3)                   (kbar)     P=       18.05
   0.00013599   0.00000000   0.00000000           20.01        0.00        0.00
   0.00000000   0.00009611   0.00000000            0.00       14.14        0.00
   0.00000000   0.00000000   0.00013599            0.00        0.00       20.01


     BFGS Geometry Optimization
     Energy error            =      0.0E+00 Ry
     Gradient error          =      0.0E+00 Ry/Bohr

     bfgs converged in   1 scf cycles and   0 bfgs steps
     (criteria: energy <  1.0E-04 Ry, force <  1.0E-03 Ry/Bohr)

     End of BFGS Geometry Optimization

     Final energy             =   -1485.5476039802 Ry
Begin final coordinates

ATOMIC_POSITIONS (angstrom)
Ba            2.2850000000        2.2850000000        2.2850000000
Bi            0.0000000000        0.0000000000        0.0000000000
O             0.0000000000        0.0000000000        2.2850000000
O             2.2850000000        0.0000000000        0.0000000000
F             0.0000000000        2.2850000000        0.0000000000
End final coordinates



     init_run     :      6.08s CPU      8.05s WALL (       1 calls)
     electrons    :    123.72s CPU    159.41s WALL (       1 calls)
     forces       :      1.53s CPU      2.72s WALL (       1 calls)
     stress       :      8.98s CPU     15.48s WALL (       1 calls)

     Called by init_run:
     wfcinit      :      1.73s CPU      2.80s WALL (       1 calls)
     potinit      :      1.15s CPU      1.31s WALL (       1 calls)
     hinit0       :      2.48s CPU      2.76s WALL (       1 calls)

     Called by electrons:
     c_bands      :     84.45s CPU    104.32s WALL (      12 calls)
     sum_band     :     21.86s CPU     29.53s WALL (      12 calls)
     v_of_rho     :      2.46s CPU      3.23s WALL (      13 calls)
     newd         :      8.76s CPU     13.84s WALL (      13 calls)
     PAW_pot      :      7.07s CPU      9.67s WALL (      13 calls)
     mix_rho      :      0.32s CPU      0.42s WALL (      12 calls)

     Called by c_bands:
     init_us_2    :      1.51s CPU      1.89s WALL (     486 calls)
     init_us_2:cp :      1.51s CPU      1.88s WALL (     486 calls)
     cegterg      :     80.91s CPU     99.92s WALL (     216 calls)

     Called by *egterg:
     cdiaghg      :      1.89s CPU      2.37s WALL (    1438 calls)
     h_psi        :     63.18s CPU     78.48s WALL (    1456 calls)
     s_psi        :      2.51s CPU      3.27s WALL (    1456 calls)
     g_psi        :      0.29s CPU      0.37s WALL (    1222 calls)

     Called by h_psi:
     h_psi:calbec :      3.73s CPU      4.54s WALL (    1456 calls)
     vloc_psi     :     56.48s CPU     70.19s WALL (    1456 calls)
     add_vuspsi   :      2.72s CPU      3.40s WALL (    1456 calls)

     General routines
     calbec       :      4.99s CPU      6.14s WALL (    1762 calls)
     fft          :      2.61s CPU      3.19s WALL (     192 calls)
     ffts         :      0.20s CPU      0.21s WALL (      25 calls)
     fftw         :     61.60s CPU     75.68s WALL (   38628 calls)
     interpolate  :      0.29s CPU      0.35s WALL (      13 calls)

     Parallel routines

     PWSCF        :   2m21.39s CPU   3m 7.26s WALL


   This run was terminated on:  22:50:50   6May2024            

=------------------------------------------------------------------------------=
   JOB DONE.
=------------------------------------------------------------------------------=
