
     Program PWSCF v.7.1 starts on  6May2024 at  2:38:21 

     This program is part of the open-source Quantum ESPRESSO suite
     for quantum simulation of materials; please cite
         "P. Giannozzi et al., J. Phys.:Condens. Matter 21 395502 (2009);
         "P. Giannozzi et al., J. Phys.:Condens. Matter 29 465901 (2017);
         "P. Giannozzi et al., J. Chem. Phys. 152 154105 (2020);
          URL http://www.quantum-espresso.org", 
     in publications or presentations arising from this work. More details at
     http://www.quantum-espresso.org/quote

     Parallel version (MPI), running on     2 processors

     MPI processes distributed on     1 nodes
     13797 MiB available memory on the printing compute node when the environment starts

     Waiting for input...
     Reading input from standard input
Warning: card &CELL ignored
Warning: card / ignored

     Current dimensions of program PWSCF are:
     Max number of different atomic species (ntypx) = 10
     Max number of k-points (npk) =  40000
     Max angular momentum in pseudopotentials (lmaxx) =  4
     file Ba.pbe-spn-kjpaw_psl.1.0.0.UPF: wavefunction(s)  5S 6S renormalized
     file Bi.pbe-dn-kjpaw_psl.1.0.0.UPF: wavefunction(s)  6P 5D renormalized
     file O.pbe-n-kjpaw_psl.1.0.0.UPF: wavefunction(s)  2S 2P renormalized
     Message from routine setup:
     using ibrav=0 with symmetry is DISCOURAGED, use correct ibrav instead

     R & G space division:  proc/nbgrp/npool/nimage =       2
     Subspace diagonalization in iterative solution of the eigenvalue problem:
     a serial algorithm will be used


     Parallelization info
     --------------------
     sticks:   dense  smooth     PW     G-vecs:    dense   smooth      PW
     Min        1498     744    210                62142    21909    3308
     Max        1499     745    211                62147    21910    3311
     Sum        2997    1489    421               124289    43819    6619

     Using Slab Decomposition



     bravais-lattice index     =            0
     lattice parameter (alat)  =       8.2203  a.u.
     unit-cell volume          =     555.4748 (a.u.)^3
     number of atoms/cell      =            5
     number of atomic types    =            3
     number of electrons       =        43.00
     number of Kohn-Sham states=           26
     kinetic-energy cutoff     =      70.0000  Ry
     charge density cutoff     =     560.0000  Ry
     scf convergence threshold =      1.0E-07
     mixing beta               =       0.7000
     number of iterations used =            8  plain     mixing
     Exchange-correlation= SLA  PW   PBX  PBC
                           (   1   4   3   4   0   0   0)

     celldm(1)=   8.220309  celldm(2)=   0.000000  celldm(3)=   0.000000
     celldm(4)=   0.000000  celldm(5)=   0.000000  celldm(6)=   0.000000

     crystal axes: (cart. coord. in units of alat)
               a(1) = (   1.000000   0.000000   0.000000 )  
               a(2) = (   0.000000   1.000000   0.000000 )  
               a(3) = (   0.000000   0.000000   1.000000 )  

     reciprocal axes: (cart. coord. in units 2 pi/alat)
               b(1) = (  1.000000  0.000000  0.000000 )  
               b(2) = (  0.000000  1.000000  0.000000 )  
               b(3) = (  0.000000  0.000000  1.000000 )  


     PseudoPot. # 1 for Ba read from file:
     /home/bond/Software/qe-7.1/pseudo/Ba.pbe-spn-kjpaw_psl.1.0.0.UPF
     MD5 check sum: 7cfe25f1fe7574a4710541d5a11d6531
     Pseudo is Projector augmented-wave + core cor, Zval = 10.0
     Generated using &quot;atomic&quot; code by A. Dal Corso  v.6.2.2
     Shape of augmentation charge: PSQ
     Using radial grid of 1251 points,  7 beta functions with: 
                l(1) =   0
                l(2) =   0
                l(3) =   0
                l(4) =   1
                l(5) =   1
                l(6) =   2
                l(7) =   2
     Q(r) pseudized with 0 coefficients 


     PseudoPot. # 2 for Bi read from file:
     /home/bond/Software/qe-7.1/pseudo/Bi.pbe-dn-kjpaw_psl.1.0.0.UPF
     MD5 check sum: 266ded784ae3bc462508ed03f0f37963
     Pseudo is Projector augmented-wave + core cor, Zval = 15.0
     Generated using &quot;atomic&quot; code by A. Dal Corso  v.6.2.2
     Shape of augmentation charge: PSQ
     Using radial grid of 1283 points,  6 beta functions with: 
                l(1) =   0
                l(2) =   0
                l(3) =   1
                l(4) =   1
                l(5) =   2
                l(6) =   2
     Q(r) pseudized with 0 coefficients 


     PseudoPot. # 3 for O  read from file:
     /home/bond/Software/qe-7.1/pseudo/O.pbe-n-kjpaw_psl.1.0.0.UPF
     MD5 check sum: e99d9cef9b487d1ca56f5b95ecd0fd7a
     Pseudo is Projector augmented-wave + core cor, Zval =  6.0
     Generated using &quot;atomic&quot; code by A. Dal Corso  v.6.3
     Shape of augmentation charge: PSQ
     Using radial grid of 1095 points,  4 beta functions with: 
                l(1) =   0
                l(2) =   0
                l(3) =   1
                l(4) =   1
     Q(r) pseudized with 0 coefficients 


     atomic species   valence    mass     pseudopotential
        Ba            10.00   137.32700     Ba( 1.00)
        Bi            15.00   208.98040     Bi( 1.00)
        O              6.00    15.99900     O ( 1.00)

     48 Sym. Ops., with inversion, found



   Cartesian axes

     site n.     atom                  positions (alat units)
         1           Ba  tau(   1) = (   0.5000000   0.5000000   0.5000000  )
         2           Bi  tau(   2) = (   0.0000000   0.0000000   0.0000000  )
         3           O   tau(   3) = (   0.0000000   0.0000000   0.5000000  )
         4           O   tau(   4) = (   0.5000000   0.0000000   0.0000000  )
         5           O   tau(   5) = (   0.0000000   0.5000000   0.0000000  )

     number of k points=    10  Methfessel-Paxton smearing, width (Ry)=  0.0200
                       cart. coord. in units 2pi/alat
        k(    1) = (   0.0000000   0.0000000   0.0000000), wk =   0.0160000
        k(    2) = (   0.0000000   0.0000000   0.2000000), wk =   0.0960000
        k(    3) = (   0.0000000   0.0000000   0.4000000), wk =   0.0960000
        k(    4) = (   0.0000000   0.2000000   0.2000000), wk =   0.1920000
        k(    5) = (   0.0000000   0.2000000   0.4000000), wk =   0.3840000
        k(    6) = (   0.0000000   0.4000000   0.4000000), wk =   0.1920000
        k(    7) = (   0.2000000   0.2000000   0.2000000), wk =   0.1280000
        k(    8) = (   0.2000000   0.2000000   0.4000000), wk =   0.3840000
        k(    9) = (   0.2000000   0.4000000   0.4000000), wk =   0.3840000
        k(   10) = (   0.4000000   0.4000000   0.4000000), wk =   0.1280000

     Dense  grid:   124289 G-vectors     FFT dimensions: (  64,  64,  64)

     Smooth grid:    43819 G-vectors     FFT dimensions: (  45,  45,  45)

     Estimated max dynamical RAM per process >     269.09 MB

     Estimated total dynamical RAM >     538.18 MB

     Initial potential from superposition of free atoms

     starting charge      42.9822, renormalised to      43.0000
     Starting wfcs are   26 randomized atomic wfcs
     Checking if some PAW data can be deallocated... 

     total cpu time spent up to now is        6.9 secs

     Self-consistent Calculation

     iteration #  1     ecut=    70.00 Ry     beta= 0.70
     Davidson diagonalization with overlap
     ethr =  1.00E-02,  avg # of iterations =  5.2

     total cpu time spent up to now is       13.7 secs

     total energy              =   -1466.69651009 Ry
     estimated scf accuracy    <       1.69037910 Ry

     iteration #  2     ecut=    70.00 Ry     beta= 0.70
     Davidson diagonalization with overlap
     ethr =  3.93E-03,  avg # of iterations =  6.4

     total cpu time spent up to now is       22.6 secs

     total energy              =   -1467.13405290 Ry
     estimated scf accuracy    <       3.63733967 Ry

     iteration #  3     ecut=    70.00 Ry     beta= 0.70
     Davidson diagonalization with overlap
     ethr =  3.93E-03,  avg # of iterations =  2.4

     total cpu time spent up to now is       29.6 secs

     total energy              =   -1467.38550198 Ry
     estimated scf accuracy    <       0.40769938 Ry

     iteration #  4     ecut=    70.00 Ry     beta= 0.70
     Davidson diagonalization with overlap
     ethr =  9.48E-04,  avg # of iterations =  6.2

     total cpu time spent up to now is       38.2 secs

     total energy              =   -1467.75623335 Ry
     estimated scf accuracy    <       0.21872408 Ry

     iteration #  5     ecut=    70.00 Ry     beta= 0.70
     Davidson diagonalization with overlap
     ethr =  5.09E-04,  avg # of iterations =  2.9

     total cpu time spent up to now is       44.8 secs

     total energy              =   -1467.72814436 Ry
     estimated scf accuracy    <       0.07519396 Ry

     iteration #  6     ecut=    70.00 Ry     beta= 0.70
     Davidson diagonalization with overlap
     ethr =  1.75E-04,  avg # of iterations =  8.9

     total cpu time spent up to now is       53.7 secs

     total energy              =   -1467.76478472 Ry
     estimated scf accuracy    <       0.01152433 Ry

     iteration #  7     ecut=    70.00 Ry     beta= 0.70
     Davidson diagonalization with overlap
     c_bands:  1 eigenvalues not converged
     ethr =  2.68E-05,  avg # of iterations =  9.8

     total cpu time spent up to now is       62.1 secs

     total energy              =   -1467.75796434 Ry
     estimated scf accuracy    <       0.02056758 Ry

     iteration #  8     ecut=    70.00 Ry     beta= 0.70
     Davidson diagonalization with overlap
     ethr =  2.68E-05,  avg # of iterations =  2.0

     total cpu time spent up to now is       68.8 secs

     total energy              =   -1467.75825600 Ry
     estimated scf accuracy    <       0.00355111 Ry

     iteration #  9     ecut=    70.00 Ry     beta= 0.70
     Davidson diagonalization with overlap
     c_bands:  1 eigenvalues not converged
     ethr =  8.26E-06,  avg # of iterations =  6.4

     total cpu time spent up to now is       77.4 secs

     total energy              =   -1467.76058068 Ry
     estimated scf accuracy    <       0.00067775 Ry

     iteration # 10     ecut=    70.00 Ry     beta= 0.70
     Davidson diagonalization with overlap
     ethr =  1.58E-06,  avg # of iterations =  6.2

     total cpu time spent up to now is       84.6 secs

     total energy              =   -1467.76053852 Ry
     estimated scf accuracy    <       0.00030730 Ry

     iteration # 11     ecut=    70.00 Ry     beta= 0.70
     Davidson diagonalization with overlap
     ethr =  7.15E-07,  avg # of iterations =  2.2

     total cpu time spent up to now is       91.3 secs

     total energy              =   -1467.76053745 Ry
     estimated scf accuracy    <       0.00008956 Ry

     iteration # 12     ecut=    70.00 Ry     beta= 0.70
     Davidson diagonalization with overlap
     ethr =  2.08E-07,  avg # of iterations =  4.5

     total cpu time spent up to now is       98.5 secs

     total energy              =   -1467.76056045 Ry
     estimated scf accuracy    <       0.00000296 Ry

     iteration # 13     ecut=    70.00 Ry     beta= 0.70
     Davidson diagonalization with overlap
     ethr =  6.89E-09,  avg # of iterations =  7.2

     total cpu time spent up to now is      107.7 secs

     total energy              =   -1467.76056791 Ry
     estimated scf accuracy    <       0.00002997 Ry

     iteration # 14     ecut=    70.00 Ry     beta= 0.70
     Davidson diagonalization with overlap
     ethr =  6.89E-09,  avg # of iterations =  4.9

     total cpu time spent up to now is      115.8 secs

     total energy              =   -1467.76056853 Ry
     estimated scf accuracy    <       0.00000562 Ry

     iteration # 15     ecut=    70.00 Ry     beta= 0.70
     Davidson diagonalization with overlap
     ethr =  6.89E-09,  avg # of iterations =  1.9

     total cpu time spent up to now is      122.2 secs

     total energy              =   -1467.76056797 Ry
     estimated scf accuracy    <       0.00000253 Ry

     iteration # 16     ecut=    70.00 Ry     beta= 0.70
     Davidson diagonalization with overlap
     ethr =  5.88E-09,  avg # of iterations =  2.3

     total cpu time spent up to now is      129.1 secs

     total energy              =   -1467.76056849 Ry
     estimated scf accuracy    <       0.00000015 Ry

     iteration # 17     ecut=    70.00 Ry     beta= 0.70
     Davidson diagonalization with overlap
     ethr =  3.46E-10,  avg # of iterations =  5.6

     total cpu time spent up to now is      137.2 secs

     End of self-consistent calculation

          k = 0.0000 0.0000 0.0000 (  5449 PWs)   bands (ev):

   -16.4423 -12.4191 -12.4191 -11.9277 -11.9277 -11.9277  -8.4288  -5.7729
    -5.7729  -1.5777  -1.5777  -1.5777   4.4372   4.5808   4.5808   4.5808
     8.2714   8.2714   8.2714   8.5538   8.5538   8.5538  13.7523  13.7524
    15.0836  15.7965

          k = 0.0000 0.0000 0.2000 (  5482 PWs)   bands (ev):

   -16.4309 -12.4187 -12.3516 -11.9316 -11.9316 -11.9276  -8.3275  -6.1487
    -5.7681  -1.5430  -1.5430  -1.5168   2.8524   4.5789   4.5789   6.4874
     8.0633   8.1835   8.1835   8.4669   8.4669   8.7829  14.2488  14.2718
    15.7816  16.1599

          k = 0.0000 0.0000 0.4000 (  5506 PWs)   bands (ev):

   -16.4124 -12.4179 -12.2391 -11.9378 -11.9378 -11.9275  -8.0143  -6.8896
    -5.7601  -1.4854  -1.4854  -1.4468   2.0717   4.5654   4.5654   7.0136
     7.7706   8.1094   8.1094   8.2906   8.2906  10.4099  15.0854  15.0895
    16.0747  16.6889

          k = 0.0000 0.2000 0.2000 (  5467 PWs)   bands (ev):

   -16.4206 -12.3857 -12.3142 -11.9349 -11.9315 -11.9312  -8.2231  -6.2853
    -5.9681  -1.5709  -1.5135  -1.4680   1.8882   4.6133   5.6024   6.6730
     7.7692   8.0841   8.2956   8.3575   8.6627   9.0624  14.5646  14.8116
    15.9323  16.2478

          k = 0.0000 0.2000 0.4000 (  5484 PWs)   bands (ev):

   -16.4038 -12.3742 -12.2078 -11.9404 -11.9375 -11.9310  -7.8991  -6.9164
    -6.0331  -1.5470  -1.4818  -1.4647   1.1546   4.6633   5.9959   6.9268
     7.6727   7.9916   8.1385   8.2480   8.6108  10.6833  15.2580  15.5966
    16.2736  16.3993

          k = 0.0000 0.4000 0.4000 (  5500 PWs)   bands (ev):

   -16.3897 -12.3340 -12.1214 -11.9446 -11.9370 -11.9369  -7.5460  -7.0303
    -6.5881  -1.6053  -1.5723  -1.4307   0.3814   4.8352   6.7308   7.5515
     7.7749   7.8145   7.8826   8.3925   8.9586  11.7616  15.4739  15.8391
    15.9680  16.2905

          k = 0.2000 0.2000 0.2000 (  5500 PWs)   bands (ev):

   -16.4110 -12.3138 -12.3138 -11.9353 -11.9353 -11.9343  -8.1199  -6.2706
    -6.2706  -1.5803  -1.5803  -1.4164   1.0788   5.6311   5.6311   6.7257
     7.7764   7.7764   8.5448   8.5889   8.5889   9.3249  14.9402  14.9403
    15.8704  16.3071

          k = 0.2000 0.2000 0.4000 (  5490 PWs)   bands (ev):

   -16.3954 -12.3130 -12.1928 -11.9417 -11.9396 -11.9349  -7.7971  -6.9228
    -6.2464  -1.5963  -1.5838  -1.4576   0.3538   5.6717   6.3552   6.9637
     7.5920   7.8326   8.4257   8.4363   8.6675  10.8825  15.1893  15.4705
    16.0714  16.2031

          k = 0.2000 0.4000 0.4000 (  5524 PWs)   bands (ev):

   -16.3818 -12.2554 -12.1212 -11.9460 -11.9412 -11.9408  -7.4824  -7.0059
    -6.6912  -1.6690  -1.6600  -1.5326  -0.4362   6.1110   6.9801   7.5401
     7.5949   7.8758   8.3996   8.5884   8.9733  11.8633  14.8127  14.8653
    15.4035  16.3237

          k = 0.4000 0.4000 0.4000 (  5502 PWs)   bands (ev):

   -16.3691 -12.1208 -12.1208 -11.9481 -11.9481 -11.9469  -7.2880  -6.9657
    -6.9657  -1.7715  -1.7715  -1.7120  -1.3325   7.3698   7.5716   7.5716
     7.9238   7.9238   8.9158   8.9158   9.0291  12.3977  13.8201  13.8201
    14.5387  17.3070

     the Fermi energy is    10.8283 ev

!    total energy              =   -1467.76056864 Ry
     total all-electron energy =    -59784.852351 Ry
     estimated scf accuracy    <          6.3E-09 Ry
     smearing contrib. (-TS)   =      -0.00121536 Ry
     internal energy E=F+TS    =   -1467.75935328 Ry

     The total energy is F=E-TS. E is the sum of the following terms:
     one-electron contribution =     -78.16125119 Ry
     hartree contribution      =      72.01105863 Ry
     xc contribution           =     -75.44587708 Ry
     ewald contribution        =    -225.83901983 Ry
     one-center paw contrib.   =   -1160.32426380 Ry

     convergence has been achieved in  17 iterations

     Forces acting on atoms (cartesian axes, Ry/au):

     atom    1 type  1   force =     0.00000000    0.00000000    0.00000000
     atom    2 type  2   force =     0.00000000    0.00000000    0.00000000
     atom    3 type  3   force =     0.00000000    0.00000000    0.00000000
     atom    4 type  3   force =     0.00000000    0.00000000    0.00000000
     atom    5 type  3   force =     0.00000000    0.00000000    0.00000000

     Total force =     0.000000     Total SCF correction =     0.000000


     Computing stress (Cartesian axis) and pressure

          total   stress  (Ry/bohr**3)                   (kbar)     P=       59.68
   0.00040571   0.00000000   0.00000000           59.68        0.00        0.00
   0.00000000   0.00040571   0.00000000            0.00       59.68        0.00
   0.00000000   0.00000000   0.00040571            0.00        0.00       59.68


     init_run     :      3.95s CPU      5.88s WALL (       1 calls)
     electrons    :    116.48s CPU    130.36s WALL (       1 calls)
     forces       :      1.80s CPU      1.95s WALL (       1 calls)
     stress       :      7.44s CPU      9.36s WALL (       1 calls)

     Called by init_run:
     wfcinit      :      0.89s CPU      1.44s WALL (       1 calls)
     potinit      :      0.79s CPU      1.29s WALL (       1 calls)
     hinit0       :      1.70s CPU      2.14s WALL (       1 calls)

     Called by electrons:
     c_bands      :     68.91s CPU     74.65s WALL (      17 calls)
     sum_band     :     24.50s CPU     28.63s WALL (      17 calls)
     v_of_rho     :      2.69s CPU      2.97s WALL (      18 calls)
     newd         :     10.86s CPU     14.20s WALL (      18 calls)
     PAW_pot      :      9.86s CPU     10.94s WALL (      18 calls)
     mix_rho      :      0.43s CPU      0.46s WALL (      17 calls)

     Called by c_bands:
     init_us_2    :      0.91s CPU      0.98s WALL (     370 calls)
     init_us_2:cp :      0.91s CPU      0.97s WALL (     370 calls)
     cegterg      :     66.38s CPU     71.94s WALL (     170 calls)

     Called by *egterg:
     cdiaghg      :      1.26s CPU      1.39s WALL (    1020 calls)
     h_psi        :     52.93s CPU     57.78s WALL (    1030 calls)
     s_psi        :      1.55s CPU      1.70s WALL (    1030 calls)
     g_psi        :      0.19s CPU      0.22s WALL (     850 calls)

     Called by h_psi:
     h_psi:calbec :      2.64s CPU      2.90s WALL (    1030 calls)
     vloc_psi     :     48.35s CPU     52.70s WALL (    1030 calls)
     add_vuspsi   :      1.75s CPU      1.96s WALL (    1030 calls)

     General routines
     calbec       :      4.28s CPU      4.65s WALL (    1250 calls)
     fft          :      2.46s CPU      2.84s WALL (     257 calls)
     ffts         :      0.20s CPU      0.27s WALL (      35 calls)
     fftw         :     53.69s CPU     58.24s WALL (   29756 calls)
     interpolate  :      0.25s CPU      0.34s WALL (      18 calls)

     Parallel routines

     PWSCF        :   2m10.62s CPU   2m28.54s WALL


   This run was terminated on:   2:40:50   6May2024            

=------------------------------------------------------------------------------=
   JOB DONE.
=------------------------------------------------------------------------------=
