
     Program PWSCF v.7.1 starts on  6May2024 at  1:16:48 

     This program is part of the open-source Quantum ESPRESSO suite
     for quantum simulation of materials; please cite
         "P. Giannozzi et al., J. Phys.:Condens. Matter 21 395502 (2009);
         "P. Giannozzi et al., J. Phys.:Condens. Matter 29 465901 (2017);
         "P. Giannozzi et al., J. Chem. Phys. 152 154105 (2020);
          URL http://www.quantum-espresso.org", 
     in publications or presentations arising from this work. More details at
     http://www.quantum-espresso.org/quote

     Parallel version (MPI), running on     2 processors

     MPI processes distributed on     1 nodes
     13556 MiB available memory on the printing compute node when the environment starts

     Waiting for input...
     Reading input from standard input
Warning: card &CELL ignored
Warning: card / ignored

     Current dimensions of program PWSCF are:
     Max number of different atomic species (ntypx) = 10
     Max number of k-points (npk) =  40000
     Max angular momentum in pseudopotentials (lmaxx) =  4
     file Ba.pbe-spn-kjpaw_psl.1.0.0.UPF: wavefunction(s)  5S 6S renormalized
     file Bi.pbe-dn-kjpaw_psl.1.0.0.UPF: wavefunction(s)  6P 5D renormalized
     file O.pbe-n-kjpaw_psl.1.0.0.UPF: wavefunction(s)  2S 2P renormalized
     Message from routine setup:
     using ibrav=0 with symmetry is DISCOURAGED, use correct ibrav instead

     R & G space division:  proc/nbgrp/npool/nimage =       2
     Subspace diagonalization in iterative solution of the eigenvalue problem:
     a serial algorithm will be used


     Parallelization info
     --------------------
     sticks:   dense  smooth     PW     G-vecs:    dense   smooth      PW
     Min        1116     554    166                39750    14056    2276
     Max        1117     555    167                39751    14057    2277
     Sum        2233    1109    333                79501    28113    4553

     Using Slab Decomposition



     bravais-lattice index     =            0
     lattice parameter (alat)  =       8.3715  a.u.
     unit-cell volume          =     586.6888 (a.u.)^3
     number of atoms/cell      =            5
     number of atomic types    =            3
     number of electrons       =        43.00
     number of Kohn-Sham states=           26
     kinetic-energy cutoff     =      50.0000  Ry
     charge density cutoff     =     400.0000  Ry
     scf convergence threshold =      1.0E-07
     mixing beta               =       0.7000
     number of iterations used =            8  plain     mixing
     Exchange-correlation= SLA  PW   PBX  PBC
                           (   1   4   3   4   0   0   0)

     celldm(1)=   8.371487  celldm(2)=   0.000000  celldm(3)=   0.000000
     celldm(4)=   0.000000  celldm(5)=   0.000000  celldm(6)=   0.000000

     crystal axes: (cart. coord. in units of alat)
               a(1) = (   1.000000   0.000000   0.000000 )  
               a(2) = (   0.000000   1.000000   0.000000 )  
               a(3) = (   0.000000   0.000000   1.000000 )  

     reciprocal axes: (cart. coord. in units 2 pi/alat)
               b(1) = (  1.000000  0.000000  0.000000 )  
               b(2) = (  0.000000  1.000000  0.000000 )  
               b(3) = (  0.000000  0.000000  1.000000 )  


     PseudoPot. # 1 for Ba read from file:
     /home/bond/Software/qe-7.1/pseudo/Ba.pbe-spn-kjpaw_psl.1.0.0.UPF
     MD5 check sum: 7cfe25f1fe7574a4710541d5a11d6531
     Pseudo is Projector augmented-wave + core cor, Zval = 10.0
     Generated using &quot;atomic&quot; code by A. Dal Corso  v.6.2.2
     Shape of augmentation charge: PSQ
     Using radial grid of 1251 points,  7 beta functions with: 
                l(1) =   0
                l(2) =   0
                l(3) =   0
                l(4) =   1
                l(5) =   1
                l(6) =   2
                l(7) =   2
     Q(r) pseudized with 0 coefficients 


     PseudoPot. # 2 for Bi read from file:
     /home/bond/Software/qe-7.1/pseudo/Bi.pbe-dn-kjpaw_psl.1.0.0.UPF
     MD5 check sum: 266ded784ae3bc462508ed03f0f37963
     Pseudo is Projector augmented-wave + core cor, Zval = 15.0
     Generated using &quot;atomic&quot; code by A. Dal Corso  v.6.2.2
     Shape of augmentation charge: PSQ
     Using radial grid of 1283 points,  6 beta functions with: 
                l(1) =   0
                l(2) =   0
                l(3) =   1
                l(4) =   1
                l(5) =   2
                l(6) =   2
     Q(r) pseudized with 0 coefficients 


     PseudoPot. # 3 for O  read from file:
     /home/bond/Software/qe-7.1/pseudo/O.pbe-n-kjpaw_psl.1.0.0.UPF
     MD5 check sum: e99d9cef9b487d1ca56f5b95ecd0fd7a
     Pseudo is Projector augmented-wave + core cor, Zval =  6.0
     Generated using &quot;atomic&quot; code by A. Dal Corso  v.6.3
     Shape of augmentation charge: PSQ
     Using radial grid of 1095 points,  4 beta functions with: 
                l(1) =   0
                l(2) =   0
                l(3) =   1
                l(4) =   1
     Q(r) pseudized with 0 coefficients 


     atomic species   valence    mass     pseudopotential
        Ba            10.00   137.32700     Ba( 1.00)
        Bi            15.00   208.98040     Bi( 1.00)
        O              6.00    15.99900     O ( 1.00)

     48 Sym. Ops., with inversion, found



   Cartesian axes

     site n.     atom                  positions (alat units)
         1           Ba  tau(   1) = (   0.5000000   0.5000000   0.5000000  )
         2           Bi  tau(   2) = (   0.0000000   0.0000000   0.0000000  )
         3           O   tau(   3) = (   0.0000000   0.0000000   0.5000000  )
         4           O   tau(   4) = (   0.5000000   0.0000000   0.0000000  )
         5           O   tau(   5) = (   0.0000000   0.5000000   0.0000000  )

     number of k points=    10  Methfessel-Paxton smearing, width (Ry)=  0.0200
                       cart. coord. in units 2pi/alat
        k(    1) = (   0.0000000   0.0000000   0.0000000), wk =   0.0312500
        k(    2) = (   0.0000000   0.0000000   0.2500000), wk =   0.1875000
        k(    3) = (   0.0000000   0.0000000  -0.5000000), wk =   0.0937500
        k(    4) = (   0.0000000   0.2500000   0.2500000), wk =   0.3750000
        k(    5) = (   0.0000000   0.2500000  -0.5000000), wk =   0.3750000
        k(    6) = (   0.0000000  -0.5000000  -0.5000000), wk =   0.0937500
        k(    7) = (   0.2500000   0.2500000   0.2500000), wk =   0.2500000
        k(    8) = (   0.2500000   0.2500000  -0.5000000), wk =   0.3750000
        k(    9) = (   0.2500000  -0.5000000  -0.5000000), wk =   0.1875000
        k(   10) = (  -0.5000000  -0.5000000  -0.5000000), wk =   0.0312500

     Dense  grid:    79501 G-vectors     FFT dimensions: (  54,  54,  54)

     Smooth grid:    28113 G-vectors     FFT dimensions: (  40,  40,  40)

     Estimated max dynamical RAM per process >     173.30 MB

     Estimated total dynamical RAM >     346.59 MB

     Check: negative core charge=   -0.000001

     Initial potential from superposition of free atoms

     starting charge      42.9822, renormalised to      43.0000
     Starting wfcs are   26 randomized atomic wfcs
     Checking if some PAW data can be deallocated... 

     total cpu time spent up to now is        4.4 secs

     Self-consistent Calculation

     iteration #  1     ecut=    50.00 Ry     beta= 0.70
     Davidson diagonalization with overlap
     ethr =  1.00E-02,  avg # of iterations =  5.3

     total cpu time spent up to now is        7.8 secs

     total energy              =   -1466.60768150 Ry
     estimated scf accuracy    <       1.78369457 Ry

     iteration #  2     ecut=    50.00 Ry     beta= 0.70
     Davidson diagonalization with overlap
     ethr =  4.15E-03,  avg # of iterations =  5.8

     total cpu time spent up to now is       11.9 secs

     total energy              =   -1467.07439191 Ry
     estimated scf accuracy    <       4.23465761 Ry

     iteration #  3     ecut=    50.00 Ry     beta= 0.70
     Davidson diagonalization with overlap
     ethr =  4.15E-03,  avg # of iterations =  3.6

     total cpu time spent up to now is       15.2 secs

     total energy              =   -1467.47424607 Ry
     estimated scf accuracy    <       0.30983438 Ry

     iteration #  4     ecut=    50.00 Ry     beta= 0.70
     Davidson diagonalization with overlap
     ethr =  7.21E-04,  avg # of iterations =  6.0

     total cpu time spent up to now is       19.0 secs

     total energy              =   -1467.75423853 Ry
     estimated scf accuracy    <       0.17213941 Ry

     iteration #  5     ecut=    50.00 Ry     beta= 0.70
     Davidson diagonalization with overlap
     ethr =  4.00E-04,  avg # of iterations =  3.0

     total cpu time spent up to now is       22.1 secs

     total energy              =   -1467.73982851 Ry
     estimated scf accuracy    <       0.04761873 Ry

     iteration #  6     ecut=    50.00 Ry     beta= 0.70
     Davidson diagonalization with overlap
     ethr =  1.11E-04,  avg # of iterations =  7.2

     total cpu time spent up to now is       26.2 secs

     total energy              =   -1467.76611478 Ry
     estimated scf accuracy    <       0.01293818 Ry

     iteration #  7     ecut=    50.00 Ry     beta= 0.70
     Davidson diagonalization with overlap
     c_bands:  1 eigenvalues not converged
     ethr =  3.01E-05,  avg # of iterations =  5.5

     total cpu time spent up to now is       29.3 secs

     total energy              =   -1467.76240086 Ry
     estimated scf accuracy    <       0.01160496 Ry

     iteration #  8     ecut=    50.00 Ry     beta= 0.70
     Davidson diagonalization with overlap
     ethr =  2.70E-05,  avg # of iterations =  1.9

     total cpu time spent up to now is       32.4 secs

     total energy              =   -1467.76253839 Ry
     estimated scf accuracy    <       0.00236608 Ry

     iteration #  9     ecut=    50.00 Ry     beta= 0.70
     Davidson diagonalization with overlap
     c_bands:  1 eigenvalues not converged
     c_bands:  1 eigenvalues not converged
     ethr =  5.50E-06,  avg # of iterations =  8.3

     total cpu time spent up to now is       36.1 secs

     total energy              =   -1467.76342396 Ry
     estimated scf accuracy    <       0.00000640 Ry

     iteration # 10     ecut=    50.00 Ry     beta= 0.70
     Davidson diagonalization with overlap
     ethr =  1.49E-08,  avg # of iterations =  9.5

     total cpu time spent up to now is       40.7 secs

     total energy              =   -1467.76345133 Ry
     estimated scf accuracy    <       0.00004815 Ry

     iteration # 11     ecut=    50.00 Ry     beta= 0.70
     Davidson diagonalization with overlap
     ethr =  1.49E-08,  avg # of iterations =  4.9

     total cpu time spent up to now is       44.5 secs

     total energy              =   -1467.76345609 Ry
     estimated scf accuracy    <       0.00000175 Ry

     iteration # 12     ecut=    50.00 Ry     beta= 0.70
     Davidson diagonalization with overlap
     ethr =  4.06E-09,  avg # of iterations =  5.7

     total cpu time spent up to now is       48.5 secs

     total energy              =   -1467.76345873 Ry
     estimated scf accuracy    <       0.00000992 Ry

     iteration # 13     ecut=    50.00 Ry     beta= 0.70
     Davidson diagonalization with overlap
     ethr =  4.06E-09,  avg # of iterations =  1.3

     total cpu time spent up to now is       51.3 secs

     total energy              =   -1467.76345718 Ry
     estimated scf accuracy    <       0.00000690 Ry

     iteration # 14     ecut=    50.00 Ry     beta= 0.70
     Davidson diagonalization with overlap
     ethr =  4.06E-09,  avg # of iterations =  3.4

     total cpu time spent up to now is       54.5 secs

     total energy              =   -1467.76345627 Ry
     estimated scf accuracy    <       0.00000228 Ry

     iteration # 15     ecut=    50.00 Ry     beta= 0.70
     Davidson diagonalization with overlap
     ethr =  4.06E-09,  avg # of iterations =  5.0

     total cpu time spent up to now is       58.2 secs

     total energy              =   -1467.76345714 Ry
     estimated scf accuracy    <       0.00000085 Ry

     iteration # 16     ecut=    50.00 Ry     beta= 0.70
     Davidson diagonalization with overlap
     ethr =  1.98E-09,  avg # of iterations =  2.8

     total cpu time spent up to now is       61.3 secs

     End of self-consistent calculation

          k = 0.0000 0.0000 0.0000 (  3431 PWs)   bands (ev):

   -17.3307 -13.1690 -13.1690 -12.7886 -12.7886 -12.7886  -8.8770  -6.5564
    -6.5564  -2.4411  -2.4411  -2.4411   3.2157   4.0397   4.0397   4.0397
     7.6423   7.6423   7.6423   7.8625   7.8625   7.8625  12.9887  12.9887
    14.0285  14.9177

          k = 0.0000 0.0000 0.2500 (  3511 PWs)   bands (ev):

   -17.3189 -13.1687 -13.0900 -12.7929 -12.7929 -12.7886  -8.7235  -7.0180
    -6.5506  -2.4033  -2.4033  -2.3828   1.6719   4.0489   4.0489   6.0281
     7.3771   7.5279   7.5279   7.7463   7.7463   8.2118  13.6502  13.6682
    15.0421  15.3652

          k = 0.0000 0.0000-0.5000 (  3514 PWs)   bands (ev):

   -17.3069 -13.1683 -13.0083 -12.7971 -12.7971 -12.7885  -8.3991  -7.6425
    -6.5447  -2.3647  -2.3647  -2.3419   1.0715   4.0510   4.0510   6.3997
     7.1471   7.4877   7.4877   7.5808   7.5808   9.7633  14.1337  14.3492
    15.7460  15.8117

          k = 0.0000 0.2500 0.2500 (  3521 PWs)   bands (ev):

   -17.3084 -13.1303 -13.0456 -12.7965 -12.7928 -12.7926  -8.5649  -7.1597
    -6.8102  -2.4484  -2.3733  -2.3596   0.5998   4.1232   5.4443   6.1412
     7.0256   7.3905   7.5906   7.6606   8.0303   8.6695  14.0127  14.4381
    15.1060  15.4692

          k = 0.0000 0.2500-0.5000 (  3476 PWs)   bands (ev):

   -17.2978 -13.1197 -12.9701 -12.7998 -12.7966 -12.7924  -8.2139  -7.6740
    -6.8927  -2.4255  -2.4156  -2.3428   0.0316   4.1973   5.8507   6.2746
     7.1129   7.3371   7.3666   7.6001   8.0319  10.1733  14.3138  14.8011
    15.0694  15.8292

          k = 0.0000-0.5000-0.5000 (  3532 PWs)   bands (ev):

   -17.2886 -13.0928 -12.9068 -12.8031 -12.7965 -12.7965  -7.7059  -7.7059
    -7.5784  -2.4825  -2.4825  -2.3205  -0.5616   4.3607   6.0979   7.1673
     7.1673   7.2662   7.2662   7.6206   8.3672  11.3177  14.1834  14.1834
    14.6841  15.0984

          k = 0.2500 0.2500 0.2500 (  3515 PWs)   bands (ev):

   -17.2987 -13.0452 -13.0452 -12.7970 -12.7970 -12.7959  -8.4159  -7.1385
    -7.1385  -2.4780  -2.4780  -2.3344  -0.3381   5.5111   5.5111   6.2104
     7.0523   7.0523   7.9431   7.9431   8.0116   9.0047  14.2795  14.2796
    14.8578  15.3448

          k = 0.2500 0.2500-0.5000 (  3492 PWs)   bands (ev):

   -17.2890 -13.0447 -12.9565 -12.8013 -12.7997 -12.7968  -8.0703  -7.6742
    -7.1170  -2.5080  -2.4935  -2.4046  -0.9162   5.5764   6.2530   6.4258
     6.9173   7.2138   7.7785   7.8665   8.1316  10.4549  13.6006  14.2780
    14.7714  15.2406

          k = 0.2500-0.5000-0.5000 (  3492 PWs)   bands (ev):

   -17.2802 -13.0020 -12.9066 -12.8043 -12.8010 -12.8010  -7.6750  -7.6750
    -7.6085  -2.5639  -2.5639  -2.4878  -1.5466   6.0409   6.5036   6.9406
     6.9406   7.6260   7.8949   7.8949   8.3923  11.5327  13.0711  13.0711
    13.8516  15.6762

          k =-0.5000-0.5000-0.5000 (  3544 PWs)   bands (ev):

   -17.2717 -12.9067 -12.9067 -12.8059 -12.8059 -12.8059  -7.6436  -7.6436
    -7.6436  -2.6449  -2.6449  -2.6449  -2.2529   6.9090   6.9090   6.9090
     7.6313   7.6313   8.4178   8.4178   8.4178  12.1823  12.1823  12.1823
    12.6833  16.6804

     the Fermi energy is    10.0641 ev

!    total energy              =   -1467.76345732 Ry
     total all-electron energy =    -59784.855240 Ry
     estimated scf accuracy    <          1.0E-09 Ry
     smearing contrib. (-TS)   =      -0.00007771 Ry
     internal energy E=F+TS    =   -1467.76337961 Ry

     The total energy is F=E-TS. E is the sum of the following terms:
     one-electron contribution =     -84.11297473 Ry
     hartree contribution      =      73.68532304 Ry
     xc contribution           =     -75.26780816 Ry
     ewald contribution        =    -221.76066282 Ry
     one-center paw contrib.   =   -1160.30725695 Ry

     convergence has been achieved in  16 iterations

     Forces acting on atoms (cartesian axes, Ry/au):

     atom    1 type  1   force =     0.00000000    0.00000000    0.00000000
     atom    2 type  2   force =     0.00000000    0.00000000    0.00000000
     atom    3 type  3   force =     0.00000000    0.00000000    0.00000000
     atom    4 type  3   force =     0.00000000    0.00000000    0.00000000
     atom    5 type  3   force =     0.00000000    0.00000000    0.00000000

     Total force =     0.000000     Total SCF correction =     0.000000


     Computing stress (Cartesian axis) and pressure

          total   stress  (Ry/bohr**3)                   (kbar)     P=       -6.81
  -0.00004628   0.00000000   0.00000000           -6.81        0.00        0.00
   0.00000000  -0.00004628   0.00000000            0.00       -6.81        0.00
   0.00000000   0.00000000  -0.00004628            0.00        0.00       -6.81


     init_run     :      2.96s CPU      3.40s WALL (       1 calls)
     electrons    :     49.63s CPU     56.82s WALL (       1 calls)
     forces       :      0.74s CPU      0.88s WALL (       1 calls)
     stress       :      4.62s CPU      5.14s WALL (       1 calls)

     Called by init_run:
     wfcinit      :      0.54s CPU      0.58s WALL (       1 calls)
     potinit      :      0.90s CPU      0.98s WALL (       1 calls)
     hinit0       :      1.11s CPU      1.22s WALL (       1 calls)

     Called by electrons:
     c_bands      :     26.30s CPU     28.17s WALL (      16 calls)
     sum_band     :      9.15s CPU     11.83s WALL (      16 calls)
     v_of_rho     :      1.18s CPU      1.27s WALL (      17 calls)
     newd         :      4.74s CPU      6.93s WALL (      17 calls)
     PAW_pot      :      8.89s CPU      9.45s WALL (      17 calls)
     mix_rho      :      0.18s CPU      0.19s WALL (      16 calls)

     Called by c_bands:
     init_us_2    :      0.55s CPU      0.59s WALL (     350 calls)
     init_us_2:cp :      0.55s CPU      0.59s WALL (     350 calls)
     cegterg      :     25.08s CPU     26.86s WALL (     160 calls)

     Called by *egterg:
     cdiaghg      :      1.20s CPU      1.27s WALL (     952 calls)
     h_psi        :     19.20s CPU     20.55s WALL (     962 calls)
     s_psi        :      0.95s CPU      1.04s WALL (     962 calls)
     g_psi        :      0.12s CPU      0.12s WALL (     792 calls)

     Called by h_psi:
     h_psi:calbec :      1.14s CPU      1.23s WALL (     962 calls)
     vloc_psi     :     16.91s CPU     18.12s WALL (     962 calls)
     add_vuspsi   :      1.03s CPU      1.10s WALL (     962 calls)

     General routines
     calbec       :      1.57s CPU      1.68s WALL (    1172 calls)
     fft          :      0.91s CPU      1.02s WALL (     244 calls)
     ffts         :      0.25s CPU      0.26s WALL (      33 calls)
     fftw         :     17.53s CPU     18.78s WALL (   28486 calls)
     interpolate  :      0.30s CPU      0.32s WALL (      17 calls)

     Parallel routines

     PWSCF        :     58.92s CPU   1m 7.29s WALL


   This run was terminated on:   1:17:56   6May2024            

=------------------------------------------------------------------------------=
   JOB DONE.
=------------------------------------------------------------------------------=
