
     Program PWSCF v.7.1 starts on  6May2024 at  1:13:53 

     This program is part of the open-source Quantum ESPRESSO suite
     for quantum simulation of materials; please cite
         "P. Giannozzi et al., J. Phys.:Condens. Matter 21 395502 (2009);
         "P. Giannozzi et al., J. Phys.:Condens. Matter 29 465901 (2017);
         "P. Giannozzi et al., J. Chem. Phys. 152 154105 (2020);
          URL http://www.quantum-espresso.org", 
     in publications or presentations arising from this work. More details at
     http://www.quantum-espresso.org/quote

     Parallel version (MPI), running on     2 processors

     MPI processes distributed on     1 nodes
     13556 MiB available memory on the printing compute node when the environment starts

     Waiting for input...
     Reading input from standard input
Warning: card &CELL ignored
Warning: card / ignored

     Current dimensions of program PWSCF are:
     Max number of different atomic species (ntypx) = 10
     Max number of k-points (npk) =  40000
     Max angular momentum in pseudopotentials (lmaxx) =  4
     file Ba.pbe-spn-kjpaw_psl.1.0.0.UPF: wavefunction(s)  5S 6S renormalized
     file Bi.pbe-dn-kjpaw_psl.1.0.0.UPF: wavefunction(s)  6P 5D renormalized
     file O.pbe-n-kjpaw_psl.1.0.0.UPF: wavefunction(s)  2S 2P renormalized
     Message from routine setup:
     using ibrav=0 with symmetry is DISCOURAGED, use correct ibrav instead

     R & G space division:  proc/nbgrp/npool/nimage =       2
     Subspace diagonalization in iterative solution of the eigenvalue problem:
     a serial algorithm will be used


     Parallelization info
     --------------------
     sticks:   dense  smooth     PW     G-vecs:    dense   smooth      PW
     Min         676     336    106                18536     6566    1150
     Max         677     337    107                18537     6567    1151
     Sum        1353     673    213                37073    13133    2301

     Using Slab Decomposition



     bravais-lattice index     =            0
     lattice parameter (alat)  =       8.3715  a.u.
     unit-cell volume          =     586.6888 (a.u.)^3
     number of atoms/cell      =            5
     number of atomic types    =            3
     number of electrons       =        43.00
     number of Kohn-Sham states=           26
     kinetic-energy cutoff     =      30.0000  Ry
     charge density cutoff     =     240.0000  Ry
     scf convergence threshold =      1.0E-07
     mixing beta               =       0.7000
     number of iterations used =            8  plain     mixing
     Exchange-correlation= SLA  PW   PBX  PBC
                           (   1   4   3   4   0   0   0)

     celldm(1)=   8.371487  celldm(2)=   0.000000  celldm(3)=   0.000000
     celldm(4)=   0.000000  celldm(5)=   0.000000  celldm(6)=   0.000000

     crystal axes: (cart. coord. in units of alat)
               a(1) = (   1.000000   0.000000   0.000000 )  
               a(2) = (   0.000000   1.000000   0.000000 )  
               a(3) = (   0.000000   0.000000   1.000000 )  

     reciprocal axes: (cart. coord. in units 2 pi/alat)
               b(1) = (  1.000000  0.000000  0.000000 )  
               b(2) = (  0.000000  1.000000  0.000000 )  
               b(3) = (  0.000000  0.000000  1.000000 )  


     PseudoPot. # 1 for Ba read from file:
     /home/bond/Software/qe-7.1/pseudo/Ba.pbe-spn-kjpaw_psl.1.0.0.UPF
     MD5 check sum: 7cfe25f1fe7574a4710541d5a11d6531
     Pseudo is Projector augmented-wave + core cor, Zval = 10.0
     Generated using &quot;atomic&quot; code by A. Dal Corso  v.6.2.2
     Shape of augmentation charge: PSQ
     Using radial grid of 1251 points,  7 beta functions with: 
                l(1) =   0
                l(2) =   0
                l(3) =   0
                l(4) =   1
                l(5) =   1
                l(6) =   2
                l(7) =   2
     Q(r) pseudized with 0 coefficients 


     PseudoPot. # 2 for Bi read from file:
     /home/bond/Software/qe-7.1/pseudo/Bi.pbe-dn-kjpaw_psl.1.0.0.UPF
     MD5 check sum: 266ded784ae3bc462508ed03f0f37963
     Pseudo is Projector augmented-wave + core cor, Zval = 15.0
     Generated using &quot;atomic&quot; code by A. Dal Corso  v.6.2.2
     Shape of augmentation charge: PSQ
     Using radial grid of 1283 points,  6 beta functions with: 
                l(1) =   0
                l(2) =   0
                l(3) =   1
                l(4) =   1
                l(5) =   2
                l(6) =   2
     Q(r) pseudized with 0 coefficients 


     PseudoPot. # 3 for O  read from file:
     /home/bond/Software/qe-7.1/pseudo/O.pbe-n-kjpaw_psl.1.0.0.UPF
     MD5 check sum: e99d9cef9b487d1ca56f5b95ecd0fd7a
     Pseudo is Projector augmented-wave + core cor, Zval =  6.0
     Generated using &quot;atomic&quot; code by A. Dal Corso  v.6.3
     Shape of augmentation charge: PSQ
     Using radial grid of 1095 points,  4 beta functions with: 
                l(1) =   0
                l(2) =   0
                l(3) =   1
                l(4) =   1
     Q(r) pseudized with 0 coefficients 


     atomic species   valence    mass     pseudopotential
        Ba            10.00   137.32700     Ba( 1.00)
        Bi            15.00   208.98040     Bi( 1.00)
        O              6.00    15.99900     O ( 1.00)

     48 Sym. Ops., with inversion, found



   Cartesian axes

     site n.     atom                  positions (alat units)
         1           Ba  tau(   1) = (   0.5000000   0.5000000   0.5000000  )
         2           Bi  tau(   2) = (   0.0000000   0.0000000   0.0000000  )
         3           O   tau(   3) = (   0.0000000   0.0000000   0.5000000  )
         4           O   tau(   4) = (   0.5000000   0.0000000   0.0000000  )
         5           O   tau(   5) = (   0.0000000   0.5000000   0.0000000  )

     number of k points=    10  Methfessel-Paxton smearing, width (Ry)=  0.0200
                       cart. coord. in units 2pi/alat
        k(    1) = (   0.0000000   0.0000000   0.0000000), wk =   0.0312500
        k(    2) = (   0.0000000   0.0000000   0.2500000), wk =   0.1875000
        k(    3) = (   0.0000000   0.0000000  -0.5000000), wk =   0.0937500
        k(    4) = (   0.0000000   0.2500000   0.2500000), wk =   0.3750000
        k(    5) = (   0.0000000   0.2500000  -0.5000000), wk =   0.3750000
        k(    6) = (   0.0000000  -0.5000000  -0.5000000), wk =   0.0937500
        k(    7) = (   0.2500000   0.2500000   0.2500000), wk =   0.2500000
        k(    8) = (   0.2500000   0.2500000  -0.5000000), wk =   0.3750000
        k(    9) = (   0.2500000  -0.5000000  -0.5000000), wk =   0.1875000
        k(   10) = (  -0.5000000  -0.5000000  -0.5000000), wk =   0.0312500

     Dense  grid:    37073 G-vectors     FFT dimensions: (  45,  45,  45)

     Smooth grid:    13133 G-vectors     FFT dimensions: (  30,  30,  30)

     Estimated max dynamical RAM per process >      83.46 MB

     Estimated total dynamical RAM >     166.91 MB

     Check: negative core charge=   -0.000009

     Initial potential from superposition of free atoms

     starting charge      42.9822, renormalised to      43.0000
     Starting wfcs are   26 randomized atomic wfcs
     Checking if some PAW data can be deallocated... 

     total cpu time spent up to now is        3.6 secs

     Self-consistent Calculation

     iteration #  1     ecut=    30.00 Ry     beta= 0.70
     Davidson diagonalization with overlap
     ethr =  1.00E-02,  avg # of iterations =  5.7

     total cpu time spent up to now is        5.9 secs

     total energy              =   -1466.34809801 Ry
     estimated scf accuracy    <       1.13520788 Ry

     iteration #  2     ecut=    30.00 Ry     beta= 0.70
     Davidson diagonalization with overlap
     ethr =  2.64E-03,  avg # of iterations =  4.1

     total cpu time spent up to now is        7.9 secs

     total energy              =   -1466.52784634 Ry
     estimated scf accuracy    <       2.26182028 Ry

     iteration #  3     ecut=    30.00 Ry     beta= 0.70
     Davidson diagonalization with overlap
     ethr =  2.64E-03,  avg # of iterations =  3.7

     total cpu time spent up to now is        9.9 secs

     total energy              =   -1466.94087790 Ry
     estimated scf accuracy    <       0.00705651 Ry

     iteration #  4     ecut=    30.00 Ry     beta= 0.70
     Davidson diagonalization with overlap
     c_bands:  1 eigenvalues not converged
     ethr =  1.64E-05,  avg # of iterations = 10.6

     total cpu time spent up to now is       12.4 secs

     total energy              =   -1466.95107331 Ry
     estimated scf accuracy    <       0.00697028 Ry

     iteration #  5     ecut=    30.00 Ry     beta= 0.70
     Davidson diagonalization with overlap
     ethr =  1.62E-05,  avg # of iterations =  2.0

     total cpu time spent up to now is       14.2 secs

     total energy              =   -1466.95182450 Ry
     estimated scf accuracy    <       0.00037555 Ry

     iteration #  6     ecut=    30.00 Ry     beta= 0.70
     Davidson diagonalization with overlap
     c_bands:  1 eigenvalues not converged
     ethr =  8.73E-07,  avg # of iterations =  9.2

     total cpu time spent up to now is       16.5 secs

     total energy              =   -1466.95208663 Ry
     estimated scf accuracy    <       0.00026137 Ry

     iteration #  7     ecut=    30.00 Ry     beta= 0.70
     Davidson diagonalization with overlap
     ethr =  6.08E-07,  avg # of iterations =  2.3

     total cpu time spent up to now is       18.3 secs

     total energy              =   -1466.95206569 Ry
     estimated scf accuracy    <       0.00008390 Ry

     iteration #  8     ecut=    30.00 Ry     beta= 0.70
     Davidson diagonalization with overlap
     ethr =  1.95E-07,  avg # of iterations =  3.0

     total cpu time spent up to now is       20.1 secs

     total energy              =   -1466.95208572 Ry
     estimated scf accuracy    <       0.00000019 Ry

     iteration #  9     ecut=    30.00 Ry     beta= 0.70
     Davidson diagonalization with overlap
     ethr =  4.36E-10,  avg # of iterations =  6.5

     total cpu time spent up to now is       22.7 secs

     total energy              =   -1466.95208679 Ry
     estimated scf accuracy    <       0.00000017 Ry

     iteration # 10     ecut=    30.00 Ry     beta= 0.70
     Davidson diagonalization with overlap
     ethr =  3.92E-10,  avg # of iterations =  1.4

     total cpu time spent up to now is       24.3 secs

     total energy              =   -1466.95208667 Ry
     estimated scf accuracy    <       0.00000025 Ry

     iteration # 11     ecut=    30.00 Ry     beta= 0.70
     Davidson diagonalization with overlap
     ethr =  3.92E-10,  avg # of iterations =  3.8

     total cpu time spent up to now is       26.3 secs

     End of self-consistent calculation

          k = 0.0000 0.0000 0.0000 (  1647 PWs)   bands (ev):

   -17.2602 -12.9400 -12.9400 -12.4925 -12.4925 -12.4925  -9.1318  -6.8389
    -6.8389  -2.3778  -2.3778  -2.3778   3.1017   3.9826   3.9826   3.9826
     7.6546   7.6546   7.6546   7.8774   7.8774   7.8774  13.0128  13.0128
    14.0137  14.9575

          k = 0.0000 0.0000 0.2500 (  1639 PWs)   bands (ev):

   -17.2480 -12.9273 -12.8079 -12.5123 -12.4855 -12.4855  -8.9776  -7.2977
    -6.8322  -2.3387  -2.3387  -2.3259   1.5741   3.9874   3.9874   5.9761
     7.3770   7.5212   7.5212   7.7820   7.7820   8.2936  13.6954  13.6970
    15.0566  15.4293

          k = 0.0000 0.0000-0.5000 (  1654 PWs)   bands (ev):

   -17.2357 -12.9956 -12.7810 -12.5516 -12.4945 -12.4945  -8.6359  -7.9501
    -6.8340  -2.2992  -2.2992  -2.2889   0.9654   3.9804   3.9804   6.3563
     7.1850   7.4790   7.4790   7.5573   7.5573   9.7732  14.1450  14.4391
    15.8151  15.8181

          k = 0.0000 0.2500 0.2500 (  1628 PWs)   bands (ev):

   -17.2372 -12.8610 -12.7438 -12.4756 -12.4745 -12.4730  -8.8246  -7.4418
    -7.0888  -2.3905  -2.3079  -2.3004   0.5038   4.0750   5.4000   6.0988
     7.0322   7.3887   7.6182   7.6981   8.1009   8.7090  14.0554  14.4741
    15.1394  15.5397

          k = 0.0000 0.2500-0.5000 (  1624 PWs)   bands (ev):

   -17.2264 -12.8612 -12.6649 -12.4638 -12.4586 -12.4517  -8.4633  -7.9782
    -7.1710  -2.3654  -2.3612  -2.2766  -0.0658   4.1521   5.8031   6.2492
     7.1518   7.3416   7.3786   7.6730   8.0835  10.1951  14.3000  14.8812
    15.1245  15.6828

          k = 0.0000-0.5000-0.5000 (  1628 PWs)   bands (ev):

   -17.2170 -12.8016 -12.6027 -12.5239 -12.4881 -12.4881  -8.0073  -8.0073
    -7.8228  -2.4281  -2.4281  -2.2538  -0.6603   4.3201   6.0663   7.1825
     7.1825   7.2677   7.2677   7.6928   8.4596  11.3238  14.1232  14.1232
    14.7089  15.1621

          k = 0.2500 0.2500 0.2500 (  1637 PWs)   bands (ev):

   -17.2274 -12.7650 -12.7650 -12.5239 -12.5239 -12.4819  -8.6839  -7.4241
    -7.4241  -2.4173  -2.4173  -2.2747  -0.4237   5.4583   5.4583   6.1864
     7.0507   7.0507   7.9910   7.9910   8.0043   9.0033  14.3077  14.3077
    14.8716  15.4183

          k = 0.2500 0.2500-0.5000 (  1622 PWs)   bands (ev):

   -17.2175 -12.7273 -12.6370 -12.5008 -12.4602 -12.4412  -8.3346  -7.9787
    -7.4021  -2.4438  -2.4364  -2.3442  -0.9977   5.5180   6.2028   6.4015
     6.9350   7.3019   7.8568   7.9557   8.1547  10.4629  13.5921  14.2978
    14.7999  15.3109

          k = 0.2500-0.5000-0.5000 (  1624 PWs)   bands (ev):

   -17.2085 -12.6929 -12.6068 -12.4771 -12.4733 -12.4733  -7.9798  -7.9798
    -7.8834  -2.5057  -2.5057  -2.4235  -1.6219   6.0248   6.4878   6.9344
     6.9344   7.6750   7.9437   7.9437   8.4707  11.5580  13.0334  13.0334
    13.8753  15.7437

          k =-0.5000-0.5000-0.5000 (  1640 PWs)   bands (ev):

   -17.2000 -12.6006 -12.6006 -12.5473 -12.5473 -12.5473  -7.9521  -7.9521
    -7.9521  -2.5827  -2.5827  -2.5827  -2.3054   6.9164   6.9164   6.9164
     7.6279   7.6279   8.4362   8.4362   8.4362  12.1230  12.1230  12.1230
    12.7890  16.6885

     the Fermi energy is    10.0866 ev

!    total energy              =   -1466.95208672 Ry
     total all-electron energy =    -59784.043869 Ry
     estimated scf accuracy    <          7.5E-10 Ry
     smearing contrib. (-TS)   =      -0.00005787 Ry
     internal energy E=F+TS    =   -1466.95202885 Ry

     The total energy is F=E-TS. E is the sum of the following terms:
     one-electron contribution =     -83.05813607 Ry
     hartree contribution      =      73.07954219 Ry
     xc contribution           =     -75.14756959 Ry
     ewald contribution        =    -221.76066284 Ry
     one-center paw contrib.   =   -1160.06520255 Ry

     convergence has been achieved in  11 iterations

     Forces acting on atoms (cartesian axes, Ry/au):

     atom    1 type  1   force =     0.00000000    0.00000000    0.00000000
     atom    2 type  2   force =     0.00000000    0.00000000    0.00000000
     atom    3 type  3   force =     0.00000000    0.00000000    0.00000000
     atom    4 type  3   force =     0.00000000    0.00000000    0.00000000
     atom    5 type  3   force =     0.00000000    0.00000000    0.00000000

     Total force =     0.000000     Total SCF correction =     0.000000


     Computing stress (Cartesian axis) and pressure

          total   stress  (Ry/bohr**3)                   (kbar)     P=    -1294.06
  -0.00879684   0.00000000   0.00000000        -1294.06        0.00        0.00
   0.00000000  -0.00879684   0.00000000            0.00    -1294.06        0.00
   0.00000000   0.00000000  -0.00879684            0.00        0.00    -1294.06


     init_run     :      2.26s CPU      2.59s WALL (       1 calls)
     electrons    :     20.06s CPU     22.67s WALL (       1 calls)
     forces       :      0.43s CPU      0.54s WALL (       1 calls)
     stress       :      2.23s CPU      2.59s WALL (       1 calls)

     Called by init_run:
     wfcinit      :      0.28s CPU      0.31s WALL (       1 calls)
     potinit      :      0.74s CPU      0.79s WALL (       1 calls)
     hinit0       :      0.78s CPU      0.86s WALL (       1 calls)

     Called by electrons:
     c_bands      :      9.33s CPU     10.08s WALL (      11 calls)
     sum_band     :      2.95s CPU      3.75s WALL (      11 calls)
     v_of_rho     :      0.47s CPU      0.50s WALL (      12 calls)
     newd         :      1.65s CPU      2.46s WALL (      12 calls)
     PAW_pot      :      6.28s CPU      6.63s WALL (      12 calls)
     mix_rho      :      0.06s CPU      0.06s WALL (      11 calls)

     Called by c_bands:
     init_us_2    :      0.20s CPU      0.21s WALL (     250 calls)
     init_us_2:cp :      0.20s CPU      0.21s WALL (     250 calls)
     cegterg      :      8.92s CPU      9.64s WALL (     110 calls)

     Called by *egterg:
     cdiaghg      :      0.80s CPU      0.86s WALL (     633 calls)
     h_psi        :      6.58s CPU      7.13s WALL (     643 calls)
     s_psi        :      0.32s CPU      0.35s WALL (     643 calls)
     g_psi        :      0.04s CPU      0.04s WALL (     523 calls)

     Called by h_psi:
     h_psi:calbec :      0.40s CPU      0.42s WALL (     643 calls)
     vloc_psi     :      5.78s CPU      6.27s WALL (     643 calls)
     add_vuspsi   :      0.36s CPU      0.39s WALL (     643 calls)

     General routines
     calbec       :      0.55s CPU      0.59s WALL (     803 calls)
     fft          :      0.44s CPU      0.48s WALL (     179 calls)
     ffts         :      0.14s CPU      0.14s WALL (      23 calls)
     fftw         :      6.08s CPU      6.59s WALL (   20068 calls)
     interpolate  :      0.15s CPU      0.17s WALL (      12 calls)

     Parallel routines

     PWSCF        :     25.92s CPU     29.43s WALL


   This run was terminated on:   1:14:22   6May2024            

=------------------------------------------------------------------------------=
   JOB DONE.
=------------------------------------------------------------------------------=
