
     Program PWSCF v.7.1 starts on  6May2024 at  2:47: 3 

     This program is part of the open-source Quantum ESPRESSO suite
     for quantum simulation of materials; please cite
         "P. Giannozzi et al., J. Phys.:Condens. Matter 21 395502 (2009);
         "P. Giannozzi et al., J. Phys.:Condens. Matter 29 465901 (2017);
         "P. Giannozzi et al., J. Chem. Phys. 152 154105 (2020);
          URL http://www.quantum-espresso.org", 
     in publications or presentations arising from this work. More details at
     http://www.quantum-espresso.org/quote

     Parallel version (MPI), running on     2 processors

     MPI processes distributed on     1 nodes
     13798 MiB available memory on the printing compute node when the environment starts

     Waiting for input...
     Reading input from standard input
Warning: card &CELL ignored
Warning: card / ignored

     Current dimensions of program PWSCF are:
     Max number of different atomic species (ntypx) = 10
     Max number of k-points (npk) =  40000
     Max angular momentum in pseudopotentials (lmaxx) =  4
     file Ba.pbe-spn-kjpaw_psl.1.0.0.UPF: wavefunction(s)  5S 6S renormalized
     file Bi.pbe-dn-kjpaw_psl.1.0.0.UPF: wavefunction(s)  6P 5D renormalized
     file O.pbe-n-kjpaw_psl.1.0.0.UPF: wavefunction(s)  2S 2P renormalized
     Message from routine setup:
     using ibrav=0 with symmetry is DISCOURAGED, use correct ibrav instead

     R & G space division:  proc/nbgrp/npool/nimage =       2
     Subspace diagonalization in iterative solution of the eigenvalue problem:
     a serial algorithm will be used


     Parallelization info
     --------------------
     sticks:   dense  smooth     PW     G-vecs:    dense   smooth      PW
     Min        1534     770    218                63837    22572    3381
     Max        1535     771    219                63838    22573    3382
     Sum        3069    1541    437               127675    45145    6763

     Using Slab Decomposition



     bravais-lattice index     =            0
     lattice parameter (alat)  =       8.2959  a.u.
     unit-cell volume          =     570.9396 (a.u.)^3
     number of atoms/cell      =            5
     number of atomic types    =            3
     number of electrons       =        43.00
     number of Kohn-Sham states=           26
     kinetic-energy cutoff     =      70.0000  Ry
     charge density cutoff     =     560.0000  Ry
     scf convergence threshold =      1.0E-07
     mixing beta               =       0.7000
     number of iterations used =            8  plain     mixing
     Exchange-correlation= SLA  PW   PBX  PBC
                           (   1   4   3   4   0   0   0)

     celldm(1)=   8.295898  celldm(2)=   0.000000  celldm(3)=   0.000000
     celldm(4)=   0.000000  celldm(5)=   0.000000  celldm(6)=   0.000000

     crystal axes: (cart. coord. in units of alat)
               a(1) = (   1.000000   0.000000   0.000000 )  
               a(2) = (   0.000000   1.000000   0.000000 )  
               a(3) = (   0.000000   0.000000   1.000000 )  

     reciprocal axes: (cart. coord. in units 2 pi/alat)
               b(1) = (  1.000000  0.000000  0.000000 )  
               b(2) = (  0.000000  1.000000  0.000000 )  
               b(3) = (  0.000000  0.000000  1.000000 )  


     PseudoPot. # 1 for Ba read from file:
     /home/bond/Software/qe-7.1/pseudo/Ba.pbe-spn-kjpaw_psl.1.0.0.UPF
     MD5 check sum: 7cfe25f1fe7574a4710541d5a11d6531
     Pseudo is Projector augmented-wave + core cor, Zval = 10.0
     Generated using &quot;atomic&quot; code by A. Dal Corso  v.6.2.2
     Shape of augmentation charge: PSQ
     Using radial grid of 1251 points,  7 beta functions with: 
                l(1) =   0
                l(2) =   0
                l(3) =   0
                l(4) =   1
                l(5) =   1
                l(6) =   2
                l(7) =   2
     Q(r) pseudized with 0 coefficients 


     PseudoPot. # 2 for Bi read from file:
     /home/bond/Software/qe-7.1/pseudo/Bi.pbe-dn-kjpaw_psl.1.0.0.UPF
     MD5 check sum: 266ded784ae3bc462508ed03f0f37963
     Pseudo is Projector augmented-wave + core cor, Zval = 15.0
     Generated using &quot;atomic&quot; code by A. Dal Corso  v.6.2.2
     Shape of augmentation charge: PSQ
     Using radial grid of 1283 points,  6 beta functions with: 
                l(1) =   0
                l(2) =   0
                l(3) =   1
                l(4) =   1
                l(5) =   2
                l(6) =   2
     Q(r) pseudized with 0 coefficients 


     PseudoPot. # 3 for O  read from file:
     /home/bond/Software/qe-7.1/pseudo/O.pbe-n-kjpaw_psl.1.0.0.UPF
     MD5 check sum: e99d9cef9b487d1ca56f5b95ecd0fd7a
     Pseudo is Projector augmented-wave + core cor, Zval =  6.0
     Generated using &quot;atomic&quot; code by A. Dal Corso  v.6.3
     Shape of augmentation charge: PSQ
     Using radial grid of 1095 points,  4 beta functions with: 
                l(1) =   0
                l(2) =   0
                l(3) =   1
                l(4) =   1
     Q(r) pseudized with 0 coefficients 


     atomic species   valence    mass     pseudopotential
        Ba            10.00   137.32700     Ba( 1.00)
        Bi            15.00   208.98040     Bi( 1.00)
        O              6.00    15.99900     O ( 1.00)

     48 Sym. Ops., with inversion, found



   Cartesian axes

     site n.     atom                  positions (alat units)
         1           Ba  tau(   1) = (   0.5000000   0.5000000   0.5000000  )
         2           Bi  tau(   2) = (   0.0000000   0.0000000   0.0000000  )
         3           O   tau(   3) = (   0.0000000   0.0000000   0.5000000  )
         4           O   tau(   4) = (   0.5000000   0.0000000   0.0000000  )
         5           O   tau(   5) = (   0.0000000   0.5000000   0.0000000  )

     number of k points=    10  Methfessel-Paxton smearing, width (Ry)=  0.0200
                       cart. coord. in units 2pi/alat
        k(    1) = (   0.0000000   0.0000000   0.0000000), wk =   0.0160000
        k(    2) = (   0.0000000   0.0000000   0.2000000), wk =   0.0960000
        k(    3) = (   0.0000000   0.0000000   0.4000000), wk =   0.0960000
        k(    4) = (   0.0000000   0.2000000   0.2000000), wk =   0.1920000
        k(    5) = (   0.0000000   0.2000000   0.4000000), wk =   0.3840000
        k(    6) = (   0.0000000   0.4000000   0.4000000), wk =   0.1920000
        k(    7) = (   0.2000000   0.2000000   0.2000000), wk =   0.1280000
        k(    8) = (   0.2000000   0.2000000   0.4000000), wk =   0.3840000
        k(    9) = (   0.2000000   0.4000000   0.4000000), wk =   0.3840000
        k(   10) = (   0.4000000   0.4000000   0.4000000), wk =   0.1280000

     Dense  grid:   127675 G-vectors     FFT dimensions: (  64,  64,  64)

     Smooth grid:    45145 G-vectors     FFT dimensions: (  45,  45,  45)

     Estimated max dynamical RAM per process >     275.96 MB

     Estimated total dynamical RAM >     551.93 MB

     Initial potential from superposition of free atoms

     starting charge      42.9822, renormalised to      43.0000
     Starting wfcs are   26 randomized atomic wfcs
     Checking if some PAW data can be deallocated... 

     total cpu time spent up to now is        5.1 secs

     Self-consistent Calculation

     iteration #  1     ecut=    70.00 Ry     beta= 0.70
     Davidson diagonalization with overlap
     ethr =  1.00E-02,  avg # of iterations =  4.0

     total cpu time spent up to now is       10.2 secs

     total energy              =   -1466.65798655 Ry
     estimated scf accuracy    <       1.73903485 Ry

     iteration #  2     ecut=    70.00 Ry     beta= 0.70
     Davidson diagonalization with overlap
     ethr =  4.04E-03,  avg # of iterations =  6.0

     total cpu time spent up to now is       16.2 secs

     total energy              =   -1467.13781182 Ry
     estimated scf accuracy    <       3.80958754 Ry

     iteration #  3     ecut=    70.00 Ry     beta= 0.70
     Davidson diagonalization with overlap
     ethr =  4.04E-03,  avg # of iterations =  2.1

     total cpu time spent up to now is       21.1 secs

     total energy              =   -1467.41619102 Ry
     estimated scf accuracy    <       0.41342607 Ry

     iteration #  4     ecut=    70.00 Ry     beta= 0.70
     Davidson diagonalization with overlap
     ethr =  9.61E-04,  avg # of iterations =  5.6

     total cpu time spent up to now is       27.2 secs

     total energy              =   -1467.77303386 Ry
     estimated scf accuracy    <       0.15292227 Ry

     iteration #  5     ecut=    70.00 Ry     beta= 0.70
     Davidson diagonalization with overlap
     ethr =  3.56E-04,  avg # of iterations =  3.5

     total cpu time spent up to now is       32.2 secs

     total energy              =   -1467.74783937 Ry
     estimated scf accuracy    <       0.07346665 Ry

     iteration #  6     ecut=    70.00 Ry     beta= 0.70
     Davidson diagonalization with overlap
     ethr =  1.71E-04,  avg # of iterations =  5.7

     total cpu time spent up to now is       37.6 secs

     total energy              =   -1467.75976211 Ry
     estimated scf accuracy    <       0.00267077 Ry

     iteration #  7     ecut=    70.00 Ry     beta= 0.70
     Davidson diagonalization with overlap
     c_bands:  1 eigenvalues not converged
     c_bands:  1 eigenvalues not converged
     c_bands:  3 eigenvalues not converged
     c_bands:  1 eigenvalues not converged
     ethr =  6.21E-06,  avg # of iterations = 16.4

     total cpu time spent up to now is       46.0 secs

     total energy              =   -1467.76608730 Ry
     estimated scf accuracy    <       0.00422608 Ry

     iteration #  8     ecut=    70.00 Ry     beta= 0.70
     Davidson diagonalization with overlap
     ethr =  6.21E-06,  avg # of iterations =  4.6

     total cpu time spent up to now is       50.7 secs

     total energy              =   -1467.76464957 Ry
     estimated scf accuracy    <       0.00340016 Ry

     iteration #  9     ecut=    70.00 Ry     beta= 0.70
     Davidson diagonalization with overlap
     ethr =  6.21E-06,  avg # of iterations =  2.1

     total cpu time spent up to now is       55.4 secs

     total energy              =   -1467.76483866 Ry
     estimated scf accuracy    <       0.00035528 Ry

     iteration # 10     ecut=    70.00 Ry     beta= 0.70
     Davidson diagonalization with overlap
     c_bands:  1 eigenvalues not converged
     c_bands:  1 eigenvalues not converged
     ethr =  8.26E-07,  avg # of iterations =  8.8

     total cpu time spent up to now is       61.9 secs

     total energy              =   -1467.76530962 Ry
     estimated scf accuracy    <       0.00073160 Ry

     iteration # 11     ecut=    70.00 Ry     beta= 0.70
     Davidson diagonalization with overlap
     ethr =  8.26E-07,  avg # of iterations =  4.2

     total cpu time spent up to now is       66.6 secs

     total energy              =   -1467.76539043 Ry
     estimated scf accuracy    <       0.00021653 Ry

     iteration # 12     ecut=    70.00 Ry     beta= 0.70
     Davidson diagonalization with overlap
     ethr =  5.04E-07,  avg # of iterations =  1.1

     total cpu time spent up to now is       70.9 secs

     total energy              =   -1467.76543269 Ry
     estimated scf accuracy    <       0.00031399 Ry

     iteration # 13     ecut=    70.00 Ry     beta= 0.70
     Davidson diagonalization with overlap
     ethr =  5.04E-07,  avg # of iterations =  1.2

     total cpu time spent up to now is       75.2 secs

     total energy              =   -1467.76528775 Ry
     estimated scf accuracy    <       0.00039043 Ry

     iteration # 14     ecut=    70.00 Ry     beta= 0.70
     Davidson diagonalization with overlap
     ethr =  5.04E-07,  avg # of iterations =  2.1

     total cpu time spent up to now is       80.1 secs

     total energy              =   -1467.76528581 Ry
     estimated scf accuracy    <       0.00005851 Ry

     iteration # 15     ecut=    70.00 Ry     beta= 0.70
     Davidson diagonalization with overlap
     ethr =  1.36E-07,  avg # of iterations =  5.0

     total cpu time spent up to now is       85.9 secs

     total energy              =   -1467.76536644 Ry
     estimated scf accuracy    <       0.00009447 Ry

     iteration # 16     ecut=    70.00 Ry     beta= 0.70
     Davidson diagonalization with overlap
     ethr =  1.36E-07,  avg # of iterations =  1.0

     total cpu time spent up to now is       90.2 secs

     total energy              =   -1467.76534779 Ry
     estimated scf accuracy    <       0.00009594 Ry

     iteration # 17     ecut=    70.00 Ry     beta= 0.70
     Davidson diagonalization with overlap
     ethr =  1.36E-07,  avg # of iterations =  1.0

     total cpu time spent up to now is       94.7 secs

     total energy              =   -1467.76533369 Ry
     estimated scf accuracy    <       0.00005154 Ry

     iteration # 18     ecut=    70.00 Ry     beta= 0.70
     Davidson diagonalization with overlap
     ethr =  1.20E-07,  avg # of iterations =  2.0

     total cpu time spent up to now is       99.9 secs

     total energy              =   -1467.76533749 Ry
     estimated scf accuracy    <       0.00001027 Ry

     iteration # 19     ecut=    70.00 Ry     beta= 0.70
     Davidson diagonalization with overlap
     ethr =  2.39E-08,  avg # of iterations =  4.8

     total cpu time spent up to now is      105.0 secs

     total energy              =   -1467.76533762 Ry
     estimated scf accuracy    <       0.00000430 Ry

     iteration # 20     ecut=    70.00 Ry     beta= 0.70
     Davidson diagonalization with overlap
     ethr =  1.00E-08,  avg # of iterations =  4.4

     total cpu time spent up to now is      110.1 secs

     total energy              =   -1467.76533982 Ry
     estimated scf accuracy    <       0.00000040 Ry

     iteration # 21     ecut=    70.00 Ry     beta= 0.70
     Davidson diagonalization with overlap
     ethr =  9.29E-10,  avg # of iterations =  4.8

     total cpu time spent up to now is      115.4 secs

     total energy              =   -1467.76533979 Ry
     estimated scf accuracy    <       0.00000072 Ry

     iteration # 22     ecut=    70.00 Ry     beta= 0.70
     Davidson diagonalization with overlap
     ethr =  9.29E-10,  avg # of iterations =  1.9

     total cpu time spent up to now is      119.8 secs

     total energy              =   -1467.76533989 Ry
     estimated scf accuracy    <       0.00000019 Ry

     iteration # 23     ecut=    70.00 Ry     beta= 0.70
     Davidson diagonalization with overlap
     ethr =  4.31E-10,  avg # of iterations =  1.1

     total cpu time spent up to now is      124.1 secs

     total energy              =   -1467.76533998 Ry
     estimated scf accuracy    <       0.00000032 Ry

     iteration # 24     ecut=    70.00 Ry     beta= 0.70
     Davidson diagonalization with overlap
     ethr =  4.31E-10,  avg # of iterations =  1.5

     total cpu time spent up to now is      128.5 secs

     total energy              =   -1467.76533995 Ry
     estimated scf accuracy    <       0.00000053 Ry

     iteration # 25     ecut=    70.00 Ry     beta= 0.70
     Davidson diagonalization with overlap
     ethr =  4.31E-10,  avg # of iterations =  1.0

     total cpu time spent up to now is      132.8 secs

     total energy              =   -1467.76534002 Ry
     estimated scf accuracy    <       0.00000044 Ry

     iteration # 26     ecut=    70.00 Ry     beta= 0.70
     Davidson diagonalization with overlap
     ethr =  4.31E-10,  avg # of iterations =  1.0

     total cpu time spent up to now is      137.3 secs

     total energy              =   -1467.76533996 Ry
     estimated scf accuracy    <       0.00000065 Ry

     iteration # 27     ecut=    70.00 Ry     beta= 0.70
     Davidson diagonalization with overlap
     ethr =  4.31E-10,  avg # of iterations =  1.0

     total cpu time spent up to now is      141.6 secs

     total energy              =   -1467.76533993 Ry
     estimated scf accuracy    <       0.00000050 Ry

     iteration # 28     ecut=    70.00 Ry     beta= 0.70
     Davidson diagonalization with overlap
     ethr =  4.31E-10,  avg # of iterations =  1.0

     total cpu time spent up to now is      145.9 secs

     total energy              =   -1467.76533978 Ry
     estimated scf accuracy    <       0.00000040 Ry

     iteration # 29     ecut=    70.00 Ry     beta= 0.70
     Davidson diagonalization with overlap
     ethr =  4.31E-10,  avg # of iterations =  2.8

     total cpu time spent up to now is      151.1 secs

     End of self-consistent calculation

          k = 0.0000 0.0000 0.0000 (  5695 PWs)   bands (ev):

   -16.8900 -12.8059 -12.8059 -12.3755 -12.3755 -12.3755  -8.6512  -6.1673
    -6.1673  -2.0126  -2.0126  -2.0126   3.8103   4.3082   4.3082   4.3082
     7.9565   7.9565   7.9565   8.2076   8.2076   8.2076  13.3657  13.3657
    14.5466  15.3512

          k = 0.0000 0.0000 0.2000 (  5638 PWs)   bands (ev):

   -16.8804 -12.8054 -12.7455 -12.3788 -12.3788 -12.3753  -8.5518  -6.5090
    -6.1629  -1.9825  -1.9825  -1.9616   2.3936   4.3114   4.3114   6.0768
     7.7586   7.8705   7.8705   8.1249   8.1249   8.3867  13.8415  13.8613
    15.2287  15.4474

          k = 0.0000 0.0000 0.4000 (  5630 PWs)   bands (ev):

   -16.8647 -12.8048 -12.6449 -12.3841 -12.3841 -12.3752  -8.2531  -7.1877
    -6.1556  -1.9327  -1.9327  -1.9019   1.6096   4.3075   4.3075   6.6960
     7.4793   7.7957   7.7957   7.9558   7.9558   9.8770  14.5990  14.6433
    15.6231  16.1797

          k = 0.0000 0.2000 0.2000 (  5634 PWs)   bands (ev):

   -16.8716 -12.7758 -12.7124 -12.3817 -12.3787 -12.3785  -8.4496  -6.6336
    -6.3447  -2.0102  -1.9568  -1.9183   1.4816   4.3474   5.2916   6.2970
     7.4661   7.7738   7.9748   8.0216   8.3137   8.6148  14.1461  14.3834
    15.4149  15.7766

          k = 0.0000 0.2000 0.4000 (  5653 PWs)   bands (ev):

   -16.8572 -12.7656 -12.6180 -12.3865 -12.3839 -12.3783  -8.1408  -7.2117
    -6.4038  -1.9898  -1.9321  -1.9144   0.7535   4.4015   5.6661   6.6214
     7.3638   7.6813   7.8136   7.9191   8.2716  10.1349  14.7928  15.0868
    15.7748  15.9269

          k = 0.0000 0.4000 0.4000 (  5640 PWs)   bands (ev):

   -16.8450 -12.7293 -12.5429 -12.3902 -12.3835 -12.3834  -7.8025  -7.3145
    -6.9130  -2.0435  -2.0134  -1.8843  -0.0018   4.5667   6.4431   7.1957
     7.4462   7.5102   7.5726   8.0288   8.6122  11.1689  14.9726  15.2289
    15.4880  15.7018

          k = 0.2000 0.2000 0.2000 (  5638 PWs)   bands (ev):

   -16.8633 -12.7120 -12.7120 -12.3819 -12.3819 -12.3812  -8.3489  -6.6202
    -6.6202  -2.0186  -2.0186  -1.8727   0.7125   5.3224   5.3224   6.3828
     7.4685   7.4685   8.2191   8.2435   8.2435   8.8312  14.5065  14.5065
    15.3698  15.8159

          k = 0.2000 0.2000 0.4000 (  5647 PWs)   bands (ev):

   -16.8500 -12.7114 -12.6049 -12.3875 -12.3858 -12.3816  -8.0415  -7.2172
    -6.5985  -2.0328  -2.0230  -1.9098  -0.0005   5.3674   6.0116   6.6574
     7.2771   7.5132   8.0950   8.0968   8.3337  10.3211  14.6677  15.0037
    15.5787  15.6992

          k = 0.2000 0.4000 0.4000 (  5650 PWs)   bands (ev):

   -16.8382 -12.6601 -12.5428 -12.3913 -12.3871 -12.3868  -7.7407  -7.2923
    -7.0064  -2.1000  -2.0907  -1.9763  -0.7653   5.7842   6.6754   7.1962
     7.2669   7.5286   8.0698   8.2391   8.6274  11.2686  14.2790  14.3503
    14.8941  15.8413

          k = 0.4000 0.4000 0.4000 (  5682 PWs)   bands (ev):

   -16.8271 -12.5426 -12.5426 -12.3931 -12.3931 -12.3920  -7.5551  -7.2557
    -7.2557  -2.1912  -2.1912  -2.1365  -1.6203   7.0391   7.2294   7.2294
     7.5457   7.5457   8.5689   8.5689   8.6826  11.8147  13.3271  13.3271
    13.9832  16.7968

     the Fermi energy is    10.2719 ev

!    total energy              =   -1467.76533977 Ry
     total all-electron energy =    -59784.857123 Ry
     estimated scf accuracy    <       0.00000005 Ry
     smearing contrib. (-TS)   =      -0.00128820 Ry
     internal energy E=F+TS    =   -1467.76405157 Ry

     The total energy is F=E-TS. E is the sum of the following terms:
     one-electron contribution =     -81.16760046 Ry
     hartree contribution      =      72.86195284 Ry
     xc contribution           =     -75.36046008 Ry
     ewald contribution        =    -223.78126111 Ry
     one-center paw contrib.   =   -1160.31668276 Ry

     convergence has been achieved in  29 iterations

     Forces acting on atoms (cartesian axes, Ry/au):

     atom    1 type  1   force =     0.00000000    0.00000000    0.00000000
     atom    2 type  2   force =     0.00000000    0.00000000    0.00000000
     atom    3 type  3   force =     0.00000000    0.00000000    0.00000000
     atom    4 type  3   force =     0.00000000    0.00000000    0.00000000
     atom    5 type  3   force =     0.00000000    0.00000000    0.00000000

     Total force =     0.000000     Total SCF correction =     0.000000


     Computing stress (Cartesian axis) and pressure

          total   stress  (Ry/bohr**3)                   (kbar)     P=       26.10
   0.00017741   0.00000000   0.00000000           26.10        0.00        0.00
   0.00000000   0.00017741   0.00000000            0.00       26.10        0.00
   0.00000000   0.00000000   0.00017741            0.00        0.00       26.10


     init_run     :      3.64s CPU      4.16s WALL (       1 calls)
     electrons    :    130.81s CPU    145.97s WALL (       1 calls)
     forces       :      1.33s CPU      1.51s WALL (       1 calls)
     stress       :      7.21s CPU      7.69s WALL (       1 calls)

     Called by init_run:
     wfcinit      :      0.87s CPU      0.95s WALL (       1 calls)
     potinit      :      0.80s CPU      0.91s WALL (       1 calls)
     hinit0       :      1.42s CPU      1.48s WALL (       1 calls)

     Called by electrons:
     c_bands      :     69.46s CPU     72.61s WALL (      29 calls)
     sum_band     :     28.27s CPU     34.30s WALL (      29 calls)
     v_of_rho     :      3.30s CPU      3.46s WALL (      30 calls)
     newd         :     14.10s CPU     19.62s WALL (      30 calls)
     PAW_pot      :     15.78s CPU     16.31s WALL (      30 calls)
     mix_rho      :      0.58s CPU      0.60s WALL (      29 calls)

     Called by c_bands:
     init_us_2    :      1.50s CPU      1.57s WALL (     610 calls)
     init_us_2:cp :      1.49s CPU      1.57s WALL (     610 calls)
     cegterg      :     65.90s CPU     68.90s WALL (     290 calls)

     Called by *egterg:
     cdiaghg      :      1.60s CPU      1.69s WALL (    1307 calls)
     h_psi        :     53.45s CPU     55.88s WALL (    1317 calls)
     s_psi        :      2.29s CPU      2.39s WALL (    1317 calls)
     g_psi        :      0.28s CPU      0.29s WALL (    1017 calls)

     Called by h_psi:
     h_psi:calbec :      2.67s CPU      2.79s WALL (    1317 calls)
     vloc_psi     :     48.10s CPU     50.27s WALL (    1317 calls)
     add_vuspsi   :      2.43s CPU      2.56s WALL (    1317 calls)

     General routines
     calbec       :      3.77s CPU      3.93s WALL (    1657 calls)
     fft          :      2.14s CPU      2.26s WALL (     413 calls)
     ffts         :      0.21s CPU      0.22s WALL (      59 calls)
     fftw         :     52.01s CPU     54.30s WALL (   45962 calls)
     interpolate  :      0.30s CPU      0.32s WALL (      30 calls)

     Parallel routines

     PWSCF        :   2m23.93s CPU   2m40.30s WALL


   This run was terminated on:   2:49:44   6May2024            

=------------------------------------------------------------------------------=
   JOB DONE.
=------------------------------------------------------------------------------=
